/*--------------------------------*- C++ -*----------------------------------*\
| =========                 |                                                 |
| \\      /  F ield         | OpenFOAM: The Open Source CFD Toolbox           |
|  \\    /   O peration     | Version:  2006                                  |
|   \\  /    A nd           | Website:  www.openfoam.com                      |
|    \\/     M anipulation  |                                                 |
\*---------------------------------------------------------------------------*/
FoamFile
{
    version     2.0;
    format      ascii;
    class       volScalarField;
    location    "20000";
    object      k_DNS;
}
// * * * * * * * * * * * * * * * * * * * * * * * * * * * * * * * * * * * * * //

dimensions      [0 2 -2 0 0 0 0];


internalField   nonuniform List<scalar> 
14751
(
0.000000584029125
0.00000058616694
0.000000588483715
0.000000590321415
0.00000059179054
0.000000593340865
0.000000595446135
0.000000597807225
0.000000600220585
0.00000060276238
0.00000060496527
0.000000606749005
0.00000060877205
0.00000061098887
0.00000061344065
0.000000616493385
0.00000061957276
0.00000062249763
0.000000625320205
0.00000062774387
0.000000630323025
0.000000633893115
0.000000638346695
0.00000064331286
0.0000006483159
0.000000653565915
0.00000065901699
0.000000665071625
0.00000067124262
0.00000067621346
0.000000680924905
0.000000686013455
0.00000069168738
0.000000697608745
0.00000070333856
0.000000708791755
0.00000071391779
0.00000071812317
0.00000072147393
0.000000724529775
0.00000072778673
0.00000073260359
0.000000737027645
0.000000739405185
0.000000740581125
0.00000073996021
0.00000073974189
0.000000739443035
0.00000073752481
0.000000734402045
0.00000073132014
0.00000072834964
0.000000723768475
0.00000071788932
0.00000071222885
0.000000707655465
0.000000702439665
0.000000696736645
0.000000691618745
0.000000686591175
0.0000006807682
0.00000067330577
0.000000666095315
0.000000659473925
0.00000065265495
0.0000006471414
0.00000064152474
0.00000063526428
0.000000627804795
0.00000062106852
0.000000615411465
0.000000609820785
0.000000604314815
0.00000059846559
0.000000593385395
0.00000058826308
0.000000583814245
0.00000057923679
0.000000574592555
0.00000057029557
0.000000566721325
0.000000564179695
0.00000056199294
0.000000560666065
0.00000056020357
0.000000560454625
0.00000056111131
0.000000561835825
0.00000056261259
0.000000564095405
0.00000056630039
0.00000056826931
0.000000570079545
0.000000571665585
0.000000573454
0.00000057564037
0.0000005778571
0.000000579863525
0.00000058185526
0.000001778367745
0.00000178487966
0.00000179193494
0.000001800480815
0.00000180792303
0.00000181562667
0.00000182504551
0.000001835273805
0.00000184568371
0.000001856511605
0.00000186632296
0.00000187486215
0.00000188415342
0.00000189407311
0.000001904739815
0.000001917304825
0.000001929978035
0.000001939088765
0.000001951009525
0.000001961704035
0.0000019729202
0.0000019872622
0.00000200122635
0.00000202001635
0.00000203896575
0.00000205874185
0.00000207590855
0.00000209831115
0.00000211777865
0.0000021368376
0.0000021517267
0.0000021712432
0.00000218919335
0.00000220793475
0.0000022295851
0.0000022468709
0.00000226312265
0.0000022764453
0.0000022906858
0.00000230037355
0.00000231072595
0.0000023260188
0.00000234006135
0.00000234761205
0.0000023513498
0.0000023493734
0.00000234868445
0.0000023477276
0.00000234163695
0.00000233172515
0.0000023219433
0.0000023125006
0.0000022979672
0.0000022793064
0.00000226133885
0.0000022468047
0.0000022302489
0.00000221213865
0.0000021958986
0.00000217992075
0.00000215804425
0.0000021343766
0.00000211152635
0.00000209053275
0.0000020689317
0.00000204821005
0.00000203042765
0.000002010619365
0.000001983869905
0.00000196258246
0.00000194163077
0.00000192399024
0.000001903598415
0.000001885177975
0.0000018662068
0.00000184715795
0.00000183318732
0.000001815919175
0.000001798485445
0.00000178218339
0.000001771010375
0.000001760247795
0.000001750614605
0.00000174367503
0.000001739434815
0.000001737406525
0.00000173663635
0.000001736070335
0.00000173566001
0.000001737409935
0.000001741368585
0.00000174458375
0.00000174728848
0.00000174929709
0.00000175189882
0.00000175570007
0.00000176246326
0.000001765683285
0.00000177174875
0.00000324561525
0.00000325248685
0.0000032712232
0.0000032873557
0.0000033069423
0.0000033320598
0.00000335484825
0.0000033842506
0.0000034138789
0.0000034441695
0.0000034732316
0.00000350072935
0.0000035248067
0.00000355521555
0.00000358731975
0.0000036172821
0.0000036524575
0.0000036821254
0.000003716683
0.00000374644845
0.0000037767282
0.0000038121194
0.00000385244635
0.0000038960438
0.000003933465
0.0000039783677
0.00000401978435
0.00000406517925
0.0000041109712
0.00000415195555
0.00000419080845
0.000004228987
0.00000427439935
0.00000431586475
0.000004353941
0.0000043922774
0.0000044286715
0.000004460904
0.00000448796485
0.0000045140131
0.0000045362759
0.00000457134175
0.0000045962127
0.00000461888
0.00000463023
0.0000046393245
0.00000464167395
0.00000464458185
0.00000463954375
0.00000462921835
0.0000046177072
0.0000046052713
0.0000045868177
0.0000045613234
0.0000045285247
0.00000450656405
0.00000447570395
0.0000044485745
0.0000044183907
0.0000043945331
0.00000436051885
0.000004319863
0.00000427991405
0.00000424066645
0.00000419990795
0.00000416542995
0.0000041296729
0.00000408509435
0.00000404215075
0.00000399605855
0.00000395349075
0.00000391146085
0.00000386919045
0.00000382412715
0.00000377804045
0.0000037369566
0.0000036962026
0.00000365455225
0.0000036172927
0.00000357136865
0.00000353367735
0.0000035019551
0.0000034675657
0.00000344156255
0.0000034147451
0.00000339632585
0.00000337519805
0.0000033546063
0.00000333428695
0.00000331746885
0.0000033025959
0.0000032873806
0.00000327722455
0.0000032613077
0.00000325101805
0.00000324236825
0.0000032348198
0.00000323608235
0.00000323817995
0.0000055064132
0.0000055056014
0.00000551888565
0.0000055407911
0.0000055659783
0.00000559772345
0.00000563786645
0.0000056816929
0.000005725878
0.00000577123185
0.00000582176955
0.0000058673534
0.0000059157612
0.0000059675945
0.0000060224795
0.00000608025
0.0000061335815
0.0000061868995
0.0000062430065
0.0000063027835
0.000006363297
0.0000064251745
0.0000064948215
0.000006567865
0.000006640868
0.000006709989
0.0000067820285
0.0000068543385
0.0000069354425
0.000007009042
0.000007076998
0.0000071528455
0.0000072252365
0.00000729914
0.000007370241
0.000007435933
0.000007498072
0.000007553015
0.0000076009975
0.000007650522
0.000007698892
0.000007756224
0.000007802029
0.000007838572
0.0000078635025
0.000007889488
0.0000079043505
0.000007923515
0.000007929844
0.0000079311435
0.0000079275405
0.000007918047
0.000007901984
0.000007882459
0.000007848506
0.000007824894
0.0000077923355
0.0000077580185
0.000007720515
0.000007689982
0.000007647348
0.0000076010495
0.0000075540575
0.0000075030615
0.0000074476225
0.0000073908035
0.0000073339745
0.0000072743545
0.0000072125085
0.0000071455405
0.0000070795785
0.0000070124935
0.00000693804155
0.0000068594506
0.00000678362205
0.00000670963255
0.0000066396148
0.0000065698359
0.0000064987199
0.0000064246678
0.0000063527054
0.0000062872205
0.0000062269873
0.00000616361365
0.00000610535275
0.0000060559077
0.0000059979063
0.0000059465783
0.0000058952975
0.0000058460426
0.00000579824935
0.00000575057865
0.00000570237045
0.000005654102
0.0000056099261
0.00000557364105
0.0000055454896
0.0000055252534
0.00000551669495
0.000007703293
0.0000076895585
0.000007689309
0.0000076987095
0.0000077160835
0.000007740079
0.000007773511
0.000007809895
0.000007847722
0.000007890637
0.000007935729
0.000007983049
0.000008031343
0.0000080879425
0.00000814752
0.0000082111255
0.000008274289
0.0000083368105
0.0000084061725
0.0000084756975
0.000008553228
0.000008630607
0.0000087214995
0.0000088070325
0.000008897579
0.000008981635
0.000009074445
0.0000091701975
0.000009265463
0.0000093655035
0.000009461183
0.0000095585595
0.000009655554
0.0000097536655
0.0000098490575
0.000009937548
0.0000100295245
0.00001011033
0.0000101805655
0.0000102494545
0.0000103256805
0.000010394848
0.0000104625845
0.000010520127
0.000010568481
0.0000106152365
0.0000106541355
0.000010692407
0.000010724365
0.0000107484965
0.0000107655095
0.000010775626
0.00001077524
0.000010768884
0.0000107525085
0.0000107337195
0.000010707254
0.0000106801265
0.000010653635
0.00001062704
0.0000105916195
0.000010552493
0.000010506859
0.0000104581705
0.000010392979
0.0000103309305
0.000010264154
0.0000101891735
0.0000101155855
0.0000100302305
0.000009947276
0.0000098529115
0.000009759479
0.0000096528685
0.000009550439
0.000009447673
0.000009352767
0.0000092603035
0.000009159458
0.0000090602895
0.0000089615975
0.0000088674015
0.0000087761595
0.0000086896505
0.000008603538
0.0000085239565
0.000008444016
0.0000083666945
0.000008294186
0.0000082165375
0.0000081434705
0.000008076279
0.0000080093165
0.000007940091
0.0000078804035
0.0000078295565
0.0000077834295
0.000007750199
0.0000077254285
0.0000091799945
0.0000091530915
0.000009142047
0.0000091497975
0.000009171531
0.000009203562
0.0000092494785
0.0000092997555
0.0000093563855
0.0000094164865
0.0000094828465
0.0000095503355
0.0000096230905
0.0000097038725
0.0000097896975
0.0000098835125
0.000009976209
0.0000100704975
0.0000101706935
0.0000102740805
0.000010380463
0.0000104937335
0.0000106061295
0.0000107061005
0.000010804437
0.0000109015045
0.00001100437
0.000011112903
0.000011225889
0.0000113401975
0.0000114544165
0.0000115732645
0.0000116936545
0.000011810347
0.000011922773
0.0000120357675
0.000012147359
0.00001224957
0.000012344467
0.0000124368915
0.000012532827
0.000012625799
0.0000127096785
0.0000127876145
0.000012857946
0.000012929172
0.000012993577
0.0000130547855
0.0000131164435
0.000013167833
0.0000132123725
0.000013242062
0.000013266336
0.000013280832
0.0000132841275
0.0000132773775
0.0000132663155
0.000013252251
0.0000132378605
0.000013220775
0.000013199095
0.000013169975
0.000013136606
0.000013093112
0.0000130377225
0.0000129727015
0.000012904713
0.000012829439
0.000012747346
0.000012658651
0.000012559444
0.000012454333
0.000012342827
0.000012228958
0.000012111994
0.0000119981575
0.0000118903815
0.0000117664765
0.000011624479
0.000011478536
0.0000113335235
0.000011187185
0.000011044869
0.00001090412
0.000010764982
0.0000106281615
0.0000104941125
0.000010362423
0.000010233273
0.000010103056
0.0000099781305
0.000009855787
0.000009737379
0.0000096199605
0.000009513522
0.000009420497
0.0000093403585
0.0000092726275
0.000009224339
0.000010462367
0.000010415048
0.0000103838375
0.0000103644625
0.000010358213
0.000010365002
0.0000103834815
0.0000104113115
0.000010446372
0.0000104880025
0.000010536763
0.0000105879865
0.000010650876
0.000010720663
0.000010798488
0.000010883915
0.000010975276
0.000011070265
0.000011167201
0.0000112717585
0.0000113844255
0.000011502878
0.000011623555
0.0000117506165
0.0000118781515
0.000012003896
0.000012133806
0.000012267131
0.000012406552
0.0000125475475
0.00001268927
0.000012834914
0.0000129853605
0.000013129042
0.0000132677645
0.000013406066
0.0000135404005
0.000013665591
0.00001378794
0.000013908047
0.0000140287325
0.000014146078
0.0000142553185
0.00001435798
0.0000144512915
0.000014545634
0.000014631086
0.0000147160805
0.000014801772
0.000014875941
0.0000149423165
0.0000149977045
0.000015039464
0.0000150673685
0.000015085895
0.0000150892575
0.000015084923
0.000015075762
0.0000150620345
0.0000150459525
0.000015022874
0.000014991401
0.0000149501325
0.000014898732
0.0000148319905
0.000014754368
0.0000146643315
0.000014561281
0.000014448731
0.0000143239245
0.0000141905785
0.000014047239
0.0000138986035
0.000013747254
0.0000135921135
0.0000134372905
0.0000132890045
0.0000131373655
0.0000129827255
0.0000128265155
0.0000126697845
0.000012517082
0.0000123617525
0.0000122165335
0.0000120725145
0.0000119331345
0.0000117953615
0.000011663404
0.0000115381725
0.000011411748
0.000011288135
0.000011168005
0.0000110511545
0.0000109378325
0.0000108351715
0.000010739479
0.000010654769
0.0000105798025
0.000010518113
0.000011080542
0.0000110298275
0.0000109986495
0.0000109849495
0.0000109891
0.0000110086395
0.0000110414535
0.0000110827335
0.0000111365215
0.0000111990165
0.00001126819
0.0000113176295
0.0000113752615
0.000011442851
0.000011520781
0.000011604927
0.0000116957215
0.0000117932605
0.000011898106
0.000012006751
0.0000121262905
0.000012248337
0.0000123770615
0.000012508895
0.000012640695
0.000012777565
0.000012916055
0.000013058235
0.00001320373
0.000013353225
0.00001350575
0.000013660955
0.00001381862
0.00001397702
0.00001412934
0.000014276405
0.000014418515
0.000014553715
0.000014689015
0.000014821045
0.000014955885
0.00001508835
0.000015212195
0.00001532759
0.00001543833
0.00001554502
0.000015640625
0.0000157367
0.000015831695
0.00001591938
0.000015998075
0.000016064865
0.000016116735
0.00001615189
0.000016172295
0.0000161801
0.00001617652
0.00001616754
0.000016152805
0.0000161309315
0.000016099741
0.0000160616535
0.0000160142685
0.0000159543645
0.0000158768975
0.000015788026
0.00001568371
0.0000155669065
0.000015436784
0.0000152980475
0.000015148782
0.000014993836
0.000014836972
0.0000146764975
0.0000145157695
0.0000143505855
0.00001419435
0.000014035669
0.000013874951
0.00001371529
0.00001355459
0.0000134005775
0.00001324678
0.0000131006855
0.0000129567075
0.000012818803
0.000012685568
0.0000125547015
0.0000124289195
0.0000122696725
0.000012109793
0.00001195452
0.0000118053355
0.0000116618935
0.000011530334
0.0000114122925
0.0000113057545
0.000011216049
0.000011143093
0.0000114633925
0.0000114110925
0.0000113734455
0.0000113487485
0.000011340392
0.0000113463875
0.0000113660395
0.0000113952785
0.0000114364285
0.0000114875755
0.000011549438
0.0000116178885
0.000011695234
0.000011784444
0.00001188065
0.0000119847
0.000012097015
0.00001221694
0.00001233538
0.000012455515
0.000012583275
0.000012714175
0.000012849595
0.00001298896
0.000013129755
0.00001327499
0.000013422635
0.00001357466
0.00001372987
0.000013884925
0.00001404505
0.000014208615
0.000014374015
0.00001453735
0.00001469962
0.00001485531
0.00001500264
0.000015147875
0.00001529313
0.0000154352
0.0000155772
0.000015717775
0.00001584965
0.000015974925
0.00001609681
0.000016211285
0.00001631214
0.00001641362
0.00001650937
0.00001659606
0.000016676265
0.000016743245
0.000016795935
0.000016828
0.000016843205
0.00001684515
0.00001683557
0.000016819075
0.00001679283
0.00001675727
0.000016712275
0.00001665929
0.00001659597
0.000016515265
0.000016424735
0.00001631191
0.00001619058
0.0000160571385
0.0000159123355
0.0000157577855
0.00001559499
0.000015427039
0.000015255108
0.0000150855745
0.0000149143375
0.0000147450765
0.000014576019
0.000014410194
0.000014242127
0.000014075295
0.000013910741
0.000013742593
0.0000135598845
0.000013385686
0.0000132165895
0.0000130563715
0.000012902434
0.0000127541045
0.0000126114615
0.0000124730855
0.0000123417445
0.0000122148355
0.00001209166
0.0000119749295
0.0000118652875
0.0000117658025
0.0000116750065
0.00001159379
0.000011524619
0.000011612686
0.000011568924
0.0000115408995
0.0000115277575
0.000011525387
0.0000115321485
0.000011550354
0.000011580615
0.00001162202
0.000011674205
0.00001173382
0.000011803775
0.000011883145
0.00001197193
0.000012068105
0.00001217286
0.000012285465
0.000012406015
0.00001253593
0.00001267383
0.000012817045
0.00001296316
0.00001311393
0.000013264535
0.000013412925
0.00001356679
0.000013722905
0.000013882095
0.000014043065
0.000014202755
0.00001436892
0.000014540185
0.00001470966
0.000014875215
0.000015039965
0.00001520149
0.00001535545
0.000015506355
0.000015656385
0.00001580294
0.00001594748
0.00001608719
0.000016221895
0.00001635431
0.00001647982
0.000016592715
0.00001669571
0.00001679297
0.00001688102
0.000016958505
0.000017030825
0.00001708789
0.000017127285
0.000017147235
0.000017150295
0.000017138935
0.000017117035
0.000017082915
0.00001704233
0.00001698569
0.000016920985
0.000016847075
0.00001676165
0.000016655945
0.00001653754
0.00001640606
0.000016265435
0.000016114185
0.000015951245
0.00001578092
0.000015604525
0.000015423925
0.00001524364
0.000015065385
0.00001488736
0.000014711497
0.0000145311205
0.000014344429
0.0000141578495
0.0000139758655
0.0000137997115
0.000013630117
0.0000134659805
0.000013308554
0.0000131592245
0.000013017698
0.0000128822925
0.0000127532295
0.0000126295695
0.0000125105515
0.0000123970205
0.000012288365
0.0000121826935
0.0000120819695
0.0000119879725
0.0000119011685
0.0000118112255
0.0000117323165
0.0000116675795
0.0000115906
0.0000115573
0.000011535455
0.00001152649
0.00001153333
0.00001155267
0.000011584755
0.000011628935
0.000011682815
0.00001174605
0.000011811075
0.00001188483
0.00001196965
0.00001206327
0.000012163515
0.00001227198
0.00001238846
0.00001251585
0.000012649255
0.00001279036
0.000012934265
0.00001308171
0.000013233775
0.00001339096
0.00001355145
0.000013715935
0.00001388242
0.000014046185
0.000014207835
0.00001437097
0.000014541755
0.000014716495
0.0000148883
0.000015054495
0.000015219785
0.000015382905
0.00001553912
0.000015691805
0.000015840835
0.00001598781
0.00001612875
0.00001626202
0.000016393955
0.00001652597
0.00001664683
0.000016750755
0.000016847605
0.000016932805
0.000017007595
0.000017071595
0.000017127055
0.00001716731
0.000017187705
0.00001718431
0.000017167345
0.00001713891
0.000017101675
0.000017047495
0.000016980145
0.000016899275
0.00001681609
0.000016719215
0.00001660831
0.000016478515
0.000016335495
0.00001618561
0.000016024745
0.00001585748
0.000015680995
0.000015498815
0.000015310845
0.00001512193
0.000014935465
0.000014746755
0.00001456199
0.00001438087
0.000014203645
0.00001402678
0.00001385366
0.00001368468
0.00001352281
0.000013366575
0.000013217905
0.000013074905
0.000012939895
0.00001281305
0.00001269247
0.0000125778455
0.0000124682245
0.000012363845
0.0000122573395
0.000012155541
0.000012058755
0.0000119675395
0.0000118851855
0.000011811335
0.000011743714
0.0000116845065
0.000011631993
0.000011519615
0.000011499205
0.000011489585
0.000011490815
0.000011504415
0.00001152909
0.000011565225
0.000011611975
0.000011667675
0.000011731695
0.00001180592
0.000011890685
0.000011985585
0.000012085345
0.00001219241
0.0000123067
0.000012429705
0.000012561
0.000012698435
0.000012840905
0.000012985085
0.00001313437
0.00001329007
0.000013449515
0.00001361168
0.000013777315
0.000013944995
0.00001411145
0.00001427386
0.000014437975
0.000014610055
0.000014785365
0.000014956335
0.000015123935
0.00001528803
0.000015447415
0.000015602225
0.00001575223
0.00001589685
0.00001603753
0.00001617343
0.0000162965
0.000016420245
0.00001654082
0.00001664742
0.000016736655
0.000016818145
0.00001688573
0.000016945065
0.00001699294
0.00001702766
0.000017041875
0.000017036015
0.000017012585
0.000016972105
0.000016923855
0.00001686391
0.000016787615
0.000016697525
0.0000165984
0.000016493665
0.00001637525
0.00001623949
0.00001608945
0.000015929855
0.00001576142
0.000015587405
0.000015403825
0.00001521885
0.000015031185
0.000014840165
0.000014649035
0.000014463195
0.00001428384
0.00001410958
0.00001393979
0.00001377304
0.00001360786
0.00001344775
0.000013292095
0.00001314372
0.000013001585
0.000012866925
0.000012737225
0.000012615365
0.000012501755
0.00001239455
0.00001229304
0.00001219616
0.000012106035
0.00001202281
0.000011945625
0.000011870765
0.00001180219
0.000011739355
0.00001168271
0.00001163291
0.0000115886
0.000011551205
0.000011407265
0.000011400805
0.0000114035
0.00001141659
0.000011440195
0.00001147385
0.000011516495
0.000011567785
0.0000116276
0.00001169625
0.000011774845
0.000011863215
0.000011960385
0.000012065755
0.000012180215
0.000012301835
0.00001243086
0.00001256535
0.00001270451
0.00001284745
0.000012993175
0.00001314452
0.00001330136
0.00001346204
0.00001362465
0.00001379013
0.000013956845
0.00001411908
0.000014279375
0.000014444475
0.00001461486
0.000014785705
0.000014952975
0.000015116045
0.00001527504
0.000015427225
0.000015576745
0.00001572089
0.00001585733
0.00001598786
0.00001611184
0.000016225585
0.00001633527
0.00001643669
0.00001652129
0.000016590845
0.000016653855
0.00001670195
0.00001674043
0.000016766895
0.00001677594
0.00001676781
0.00001673728
0.000016690705
0.000016629955
0.000016560125
0.000016478015
0.00001638188
0.000016271845
0.00001615859
0.00001603445
0.00001589499
0.000015740195
0.00001557609
0.000015404215
0.000015227855
0.0000150434
0.000014853135
0.000014664975
0.00001447755
0.00001429431
0.000014114195
0.000013939255
0.00001377122
0.00001360953
0.00001345227
0.000013295875
0.000013144425
0.00001299819
0.0000128567
0.00001272136
0.00001259313
0.000012472895
0.00001235918
0.000012252785
0.00001215598
0.00001206747
0.00001198438
0.000011906065
0.000011834905
0.00001177088
0.00001171087
0.00001165477
0.00001160101
0.000011554525
0.000011513525
0.000011478375
0.00001144889
0.00001142448
0.000011288455
0.00001129351
0.00001130528
0.00001132723
0.00001135946
0.00001139974
0.00001144884
0.000011506445
0.00001157138
0.000011645385
0.000011729115
0.00001182258
0.00001192371
0.00001203301
0.000012150765
0.000012277095
0.000012409895
0.00001254546
0.00001268519
0.000012828115
0.00001297512
0.00001312611
0.00001328216
0.000013440825
0.000013602305
0.000013764595
0.00001392599
0.000014083505
0.000014242555
0.00001440795
0.00001457251
0.00001473526
0.000014893755
0.000015046955
0.000015195505
0.00001533929
0.00001547917
0.00001561242
0.00001573745
0.00001585574
0.000015965
0.00001606494
0.00001615772
0.000016233875
0.000016293475
0.000016342685
0.00001638294
0.00001641456
0.000016427635
0.000016429025
0.00001641477
0.000016381345
0.00001633123
0.00001626556
0.00001618749
0.00001609867
0.000015998115
0.00001588481
0.00001576261
0.00001563499
0.000015494125
0.000015339655
0.00001517414
0.00001500131
0.00001482288
0.00001464237
0.000014454715
0.00001426931
0.000014086915
0.000013908
0.0000137361
0.00001356889
0.00001340673
0.00001325187
0.00001310557
0.000012960175
0.00001281865
0.00001268018
0.000012549595
0.000012423035
0.000012303515
0.000012191655
0.00001208605
0.000011992455
0.00001190569
0.00001182608
0.00001175491
0.000011686155
0.000011625005
0.000011568605
0.00001151827
0.00001147249
0.00001142989
0.00001139371
0.000011363615
0.000011338905
0.000011319045
0.00001130364
0.000011290735
0.00001117141
0.00001118819
0.00001120947
0.00001124029
0.000011278925
0.000011324605
0.000011378585
0.000011440315
0.000011510485
0.00001159063
0.000011679565
0.000011776705
0.00001188202
0.000011994855
0.000012115495
0.00001224269
0.000012374725
0.00001251111
0.00001265056
0.00001279322
0.000012939885
0.00001308928
0.00001324232
0.00001339605
0.000013552795
0.00001370882
0.000013862685
0.000014017335
0.0000141744
0.000014333105
0.000014490915
0.00001464355
0.000014789955
0.000014931065
0.000015066765
0.00001519789
0.000015324715
0.00001544013
0.000015552485
0.000015656355
0.000015750985
0.00001583223
0.00001590069
0.000015951635
0.000015987775
0.00001601618
0.000016040945
0.000016048395
0.000016039025
0.00001601645
0.000015980455
0.000015928435
0.00001586086
0.00001577731
0.000015684085
0.00001558222
0.00001546874
0.00001534463
0.000015211925
0.0000150724
0.000014917925
0.00001475583
0.00001458733
0.00001441237
0.0000142346
0.000014053125
0.0000138716
0.000013696245
0.00001352605
0.000013359465
0.00001319782
0.000013044695
0.00001289773
0.00001275951
0.000012626285
0.000012495255
0.000012369155
0.00001224741
0.000012129315
0.000012019535
0.000011917005
0.000011820745
0.000011734925
0.00001165956
0.00001158948
0.000011525825
0.0000114681
0.00001141555
0.00001136553
0.000011322195
0.00001128338
0.000011249895
0.000011224395
0.00001120334
0.000011187845
0.00001117511
0.000011167495
0.000011163105
0.00001116414
0.000011064545
0.00001108904
0.000011119795
0.00001115843
0.00001120301
0.00001125396
0.000011311885
0.0000113783
0.00001145291
0.000011537415
0.0000116316
0.00001173327
0.00001184137
0.00001195643
0.00001207862
0.000012205625
0.000012335955
0.00001246955
0.00001260629
0.000012746735
0.000012891375
0.00001303888
0.00001318721
0.00001333491
0.00001348273
0.000013629925
0.000013777995
0.000013927885
0.000014077825
0.00001422657
0.000014374635
0.000014514705
0.000014646785
0.00001477331
0.000014893755
0.000015012925
0.00001512066
0.00001521939
0.000015317435
0.00001540237
0.000015477065
0.000015539545
0.00001558505
0.000015612355
0.000015628565
0.000015640865
0.00001564477
0.000015631605
0.00001560027
0.00001555941
0.000015504595
0.00001543442
0.00001535045
0.0000152562
0.000015149625
0.00001503789
0.000014913055
0.00001478069
0.00001464305
0.000014494855
0.000014335685
0.000014173755
0.000014008625
0.00001383818
0.00001366491
0.00001348893
0.00001332022
0.00001315786
0.000013001565
0.00001284848
0.000012701805
0.00001256159
0.000012432525
0.000012311005
0.00001219055
0.0000120742
0.00001196359
0.000011858315
0.000011756835
0.00001166252
0.000011575635
0.00001149547
0.00001142815
0.00001136759
0.000011313275
0.000011264135
0.00001121886
0.000011176935
0.00001114023
0.00001110609
0.000011079365
0.00001105707
0.00001104114
0.00001103322
0.000011027115
0.0000110264
0.00001102834
0.000011034835
0.00001104572
0.000010968505
0.00001100079
0.00001103928
0.00001108494
0.00001113486
0.000011190465
0.00001125382
0.00001132479
0.000011403925
0.00001149256
0.00001159072
0.000011694555
0.00001180347
0.000011919005
0.000012039685
0.000012164125
0.00001229045
0.000012419785
0.000012552855
0.000012689955
0.00001283131
0.00001297491
0.00001311743
0.00001325843
0.000013396265
0.00001353532
0.00001367631
0.00001381675
0.000013957515
0.00001409662
0.00001422868
0.0000143529
0.00001446955
0.000014581285
0.000014689255
0.00001478844
0.00001487698
0.0000149631
0.000015039875
0.00001510564
0.00001516113
0.000015202695
0.000015226845
0.00001523728
0.0000152385
0.000015233965
0.000015214535
0.00001517891
0.00001513357
0.00001507699
0.000015005615
0.00001491946
0.000014824195
0.000014716535
0.00001460464
0.000014483525
0.00001435236
0.000014215205
0.000014073345
0.000013923875
0.000013769295
0.000013614135
0.00001345424
0.000013290955
0.00001312669
0.00001296414
0.000012812685
0.00001266639
0.00001252493
0.00001238753
0.0000122576
0.00001213399
0.00001201943
0.00001190957
0.00001180244
0.000011701315
0.000011608285
0.000011517875
0.000011434
0.00001135671
0.000011286075
0.00001122128
0.000011166595
0.000011120125
0.00001107947
0.00001104069
0.000011006195
0.00001097551
0.00001094723
0.000010922975
0.000010904675
0.00001089175
0.000010884095
0.00001088454
0.000010888195
0.000010896275
0.000010906385
0.0000109213
0.00001094185
0.000010889735
0.0000109277
0.000010971655
0.00001102212
0.0000110773
0.000011137485
0.000011204885
0.00001127961
0.000011362605
0.00001145403
0.000011553805
0.000011657835
0.000011766075
0.000011879625
0.00001199624
0.000012115405
0.000012236375
0.00001236226
0.00001249215
0.000012625485
0.00001276221
0.00001289895
0.000013032465
0.000013163295
0.000013293705
0.000013423665
0.00001355414
0.000013686015
0.00001381695
0.000013940805
0.000014055945
0.00001416156
0.000014265025
0.000014363465
0.000014456655
0.00001453692
0.000014609025
0.00001467669
0.000014730325
0.00001477664
0.000014811585
0.000014833375
0.000014840795
0.000014835815
0.000014824125
0.00001479977
0.00001475867
0.000014707925
0.000014652255
0.00001458229
0.00001449609
0.000014397825
0.00001429253
0.000014179905
0.00001406295
0.000013935815
0.000013803665
0.000013666505
0.00001352554
0.000013380785
0.00001323485
0.00001308626
0.000012933225
0.00001278106
0.000012631255
0.000012489625
0.00001235344
0.00001222353
0.00001209792
0.00001197861
0.000011866605
0.000011759845
0.00001165873
0.000011559335
0.000011464855
0.00001137914
0.00001130105
0.00001122759
0.00001116002
0.00001109808
0.00001104246
0.00001099213
0.000010948635
0.000010913555
0.000010882045
0.0000108526
0.00001082658
0.000010804185
0.000010783655
0.000010768195
0.0000107576
0.000010752125
0.0000107535
0.000010759795
0.00001077205
0.00001078715
0.000010805635
0.00001082998
0.000010857365
0.00001082315
0.000010866535
0.00001091528
0.0000109683
0.00001102732
0.000011092135
0.00001116262
0.000011240155
0.00001132507
0.00001141724
0.00001151581
0.00001161831
0.000011724745
0.000011834735
0.00001194674
0.000012059185
0.00001217634
0.00001229886
0.000012425105
0.000012553635
0.000012682635
0.000012808275
0.000012930665
0.00001305203
0.000013172555
0.00001329298
0.00001341416
0.000013535855
0.000013651855
0.00001375898
0.000013856755
0.000013948905
0.00001403921
0.000014122915
0.000014198505
0.000014261185
0.000014315655
0.00001436076
0.0000143956
0.000014423675
0.00001443866
0.00001444295
0.00001443345
0.00001441488
0.000014387135
0.00001434663
0.000014293935
0.00001423708
0.000014169895
0.00001408775
0.00001398994
0.000013885545
0.000013775455
0.000013661045
0.00001354202
0.00001341743
0.000013289155
0.00001315767
0.0000130236
0.000012885575
0.000012747515
0.00001260513
0.000012461715
0.000012322535
0.00001218762
0.0000120638
0.00001194431
0.000011829365
0.00001172115
0.00001162079
0.000011524745
0.00001143567
0.00001134706
0.00001126167
0.000011180555
0.00001110488
0.00001104016
0.00001098229
0.000010928805
0.00001088108
0.00001083924
0.00001080247
0.00001076798
0.000010741135
0.00001071738
0.00001069606
0.00001067772
0.000010661255
0.000010646715
0.000010639845
0.000010636445
0.000010638675
0.0000106455
0.000010658815
0.00001067615
0.000010697675
0.000010724435
0.000010753555
0.000010785685
0.000010766585
0.00001081431
0.000010866075
0.00001092171
0.00001098291
0.000011050005
0.000011122845
0.0000112024
0.00001128791
0.000011378825
0.000011473995
0.000011573315
0.000011676955
0.00001178267
0.00001188986
0.00001199818
0.000012112135
0.000012230475
0.000012350405
0.00001247016
0.000012588265
0.000012702135
0.00001281516
0.00001292863
0.0000130402
0.000013150815
0.00001326017
0.00001336556
0.00001346407
0.000013553335
0.000013636995
0.000013717935
0.00001379184
0.00001385849
0.00001391518
0.000013960875
0.000013996375
0.00001402529
0.000014046695
0.00001405726
0.00001405672
0.00001403992
0.00001401537