/*--------------------------------*- C++ -*----------------------------------*\
| =========                 |                                                 |
| \\      /  F ield         | OpenFOAM: The Open Source CFD Toolbox           |
|  \\    /   O peration     | Version:  2112                                  |
|   \\  /    A nd           | Website:  www.openfoam.com                      |
|    \\/     M anipulation  |                                                 |
\*---------------------------------------------------------------------------*/
FoamFile
{
    version     2.0;
    format      ascii;
    arch        "LSB;label=32;scalar=64";
    class       volScalarField;
    location    "2858";
    object      k;
}
// * * * * * * * * * * * * * * * * * * * * * * * * * * * * * * * * * * * * * //

dimensions      [0 2 -2 0 0 0 0];

internalField   nonuniform List<scalar> 
14751
(
1.14379e-07
1.13849e-07
1.14085e-07
1.13205e-07
1.12473e-07
1.11083e-07
1.09408e-07
1.07435e-07
1.05134e-07
1.02603e-07
9.98746e-08
9.69927e-08
9.39864e-08
9.09303e-08
8.78493e-08
8.47871e-08
8.17766e-08
7.88289e-08
7.5979e-08
7.32352e-08
7.06238e-08
6.81398e-08
6.57915e-08
6.35847e-08
6.15255e-08
5.96018e-08
5.78135e-08
5.61557e-08
5.4623e-08
5.32158e-08
5.19279e-08
5.07544e-08
4.96898e-08
4.87287e-08
4.78677e-08
4.70988e-08
4.6416e-08
4.58192e-08
4.53049e-08
4.48668e-08
4.44984e-08
4.42054e-08
4.39835e-08
4.3833e-08
4.37541e-08
4.37394e-08
4.37897e-08
4.39036e-08
4.40802e-08
4.43198e-08
4.46207e-08
4.49847e-08
4.54127e-08
4.59021e-08
4.64544e-08
4.70691e-08
4.7747e-08
4.84888e-08
4.92924e-08
5.01628e-08
5.11016e-08
5.21041e-08
5.31736e-08
5.43013e-08
5.54851e-08
5.67304e-08
5.80356e-08
5.93969e-08
6.08102e-08
6.22787e-08
6.37983e-08
6.53676e-08
6.69843e-08
6.86445e-08
7.03475e-08
7.20917e-08
7.38736e-08
7.56936e-08
7.75471e-08
7.9437e-08
8.13615e-08
8.33121e-08
8.53049e-08
8.73212e-08
8.93688e-08
9.14439e-08
9.35394e-08
9.56447e-08
9.77498e-08
9.98487e-08
1.01914e-07
1.03913e-07
1.05869e-07
1.07672e-07
1.09338e-07
1.10852e-07
1.11997e-07
1.12676e-07
1.13931e-07
8.81099e-08
8.65532e-08
8.56458e-08
8.44898e-08
8.34403e-08
8.2341e-08
8.1164e-08
7.99781e-08
7.87481e-08
7.75072e-08
7.6257e-08
7.50218e-08
7.37884e-08
7.25837e-08
7.14217e-08
7.02969e-08
6.92369e-08
6.82219e-08
6.72724e-08
6.63828e-08
6.55688e-08
6.48243e-08
6.41509e-08
6.35483e-08
6.30238e-08
6.25677e-08
6.21771e-08
6.18519e-08
6.15875e-08
6.1387e-08
6.12497e-08
6.1173e-08
6.1156e-08
6.11962e-08
6.12918e-08
6.14409e-08
6.16367e-08
6.18815e-08
6.21748e-08
6.25136e-08
6.28888e-08
6.3313e-08
6.37805e-08
6.42974e-08
6.48603e-08
6.54642e-08
6.61038e-08
6.67791e-08
6.74883e-08
6.82304e-08
6.90034e-08
6.98066e-08
7.06401e-08
7.14992e-08
7.23817e-08
7.3286e-08
7.42093e-08
7.51501e-08
7.61055e-08
7.70758e-08
7.80645e-08
7.90621e-08
8.00645e-08
8.10611e-08
8.20451e-08
8.30204e-08
8.39834e-08
8.49287e-08
8.58494e-08
8.6746e-08
8.76156e-08
8.84533e-08
8.92564e-08
9.00198e-08
9.07401e-08
9.14144e-08
9.20399e-08
9.26103e-08
9.31295e-08
9.35816e-08
9.39744e-08
9.42925e-08
9.456e-08
9.4756e-08
9.48833e-08
9.49451e-08
9.49435e-08
9.48696e-08
9.47277e-08
9.45141e-08
9.42471e-08
9.38975e-08
9.34749e-08
9.29745e-08
9.23257e-08
9.16225e-08
9.06957e-08
8.95948e-08
8.85577e-08
4.92754e-07
4.83137e-07
4.77878e-07
4.72906e-07
4.68995e-07
4.65593e-07
4.62113e-07
4.5891e-07
4.55742e-07
4.52703e-07
4.49752e-07
4.46997e-07
4.44318e-07
4.41795e-07
4.39482e-07
4.37306e-07
4.35409e-07
4.33653e-07
4.32147e-07
4.30847e-07
4.29835e-07
4.29085e-07
4.28602e-07
4.2838e-07
4.28463e-07
4.28813e-07
4.29425e-07
4.30304e-07
4.31431e-07
4.32826e-07
4.34495e-07
4.36431e-07
4.38635e-07
4.41101e-07
4.43823e-07
4.46801e-07
4.5e-07
4.53433e-07
4.57103e-07
4.61003e-07
4.65082e-07
4.69418e-07
4.73956e-07
4.78758e-07
4.83768e-07
4.88935e-07
4.94273e-07
4.99778e-07
5.05433e-07
5.1123e-07
5.17152e-07
5.23185e-07
5.29326e-07
5.3554e-07
5.41805e-07
5.48104e-07
5.54408e-07
5.60701e-07
5.66954e-07
5.73146e-07
5.79298e-07
5.85331e-07
5.9121e-07
5.96879e-07
6.02275e-07
6.07401e-07
6.12223e-07
6.16705e-07
6.20787e-07
6.2446e-07
6.27697e-07
6.3046e-07
6.32726e-07
6.34459e-07
6.35631e-07
6.36227e-07
6.3623e-07
6.35592e-07
6.34359e-07
6.32413e-07
6.29825e-07
6.26498e-07
6.22623e-07
6.18081e-07
6.12912e-07
6.07163e-07
6.00878e-07
5.9404e-07
5.86722e-07
5.78939e-07
5.70878e-07
5.62372e-07
5.53546e-07
5.44565e-07
5.35012e-07
5.25678e-07
5.15735e-07
5.05811e-07
4.96681e-07
1.60307e-06
1.57537e-06
1.56162e-06
1.5509e-06
1.54514e-06
1.54205e-06
1.53866e-06
1.53623e-06
1.53421e-06
1.53283e-06
1.53189e-06
1.53167e-06
1.53181e-06
1.53246e-06
1.5337e-06
1.53532e-06
1.53765e-06
1.54031e-06
1.54358e-06
1.54734e-06
1.55178e-06
1.55684e-06
1.56253e-06
1.56883e-06
1.57581e-06
1.58344e-06
1.59169e-06
1.60058e-06
1.61008e-06
1.62023e-06
1.63104e-06
1.64251e-06
1.65464e-06
1.66742e-06
1.68085e-06
1.69491e-06
1.70955e-06
1.72476e-06
1.74059e-06
1.75699e-06
1.77384e-06
1.7914e-06
1.80937e-06
1.82757e-06
1.84626e-06
1.86535e-06
1.88481e-06
1.90461e-06
1.92469e-06
1.94501e-06
1.96551e-06
1.98611e-06
2.0068e-06
2.02745e-06
2.04798e-06
2.06831e-06
2.08835e-06
2.108e-06
2.12718e-06
2.14575e-06
2.16377e-06
2.18099e-06
2.19727e-06
2.21249e-06
2.22642e-06
2.23903e-06
2.2502e-06
2.25983e-06
2.26771e-06
2.2738e-06
2.27801e-06
2.28022e-06
2.28038e-06
2.27836e-06
2.27411e-06
2.2676e-06
2.25879e-06
2.24753e-06
2.23404e-06
2.21795e-06
2.19952e-06
2.17842e-06
2.15543e-06
2.13016e-06
2.10281e-06
2.07358e-06
2.04267e-06
2.0101e-06
1.9762e-06
1.94105e-06
1.905e-06
1.86791e-06
1.83033e-06
1.79288e-06
1.75488e-06
1.7184e-06
1.68187e-06
1.6475e-06
1.61717e-06
3.20447e-06
3.1588e-06
3.13565e-06
3.12003e-06
3.11453e-06
3.11518e-06
3.11661e-06
3.12073e-06
3.1256e-06
3.13087e-06
3.13735e-06
3.14565e-06
3.15506e-06
3.16573e-06
3.17765e-06
3.19048e-06
3.20462e-06
3.21947e-06
3.23537e-06
3.25212e-06
3.26991e-06
3.28868e-06
3.30837e-06
3.32892e-06
3.35041e-06
3.37277e-06
3.39599e-06
3.42006e-06
3.44494e-06
3.47065e-06
3.4972e-06
3.52455e-06
3.55273e-06
3.5817e-06
3.61143e-06
3.64191e-06
3.67309e-06
3.7049e-06
3.73741e-06
3.77059e-06
3.80401e-06
3.83745e-06
3.87126e-06
3.90534e-06
3.93985e-06
3.97466e-06
4.00967e-06
4.04484e-06
4.08003e-06
4.11517e-06
4.15013e-06
4.18479e-06
4.21909e-06
4.25283e-06
4.28587e-06
4.31808e-06
4.34928e-06
4.37934e-06
4.40807e-06
4.43527e-06
4.46098e-06
4.48485e-06
4.50669e-06
4.52634e-06
4.54349e-06
4.55804e-06
4.56983e-06
4.57871e-06
4.58441e-06
4.58684e-06
4.58589e-06
4.58139e-06
4.57325e-06
4.56134e-06
4.54556e-06
4.52588e-06
4.5023e-06
4.47449e-06
4.44299e-06
4.40707e-06
4.36715e-06
4.32247e-06
4.27343e-06
4.2206e-06
4.1643e-06
4.10486e-06
4.04259e-06
3.97763e-06
3.91052e-06
3.84149e-06
3.77121e-06
3.69955e-06
3.62735e-06
3.5557e-06
3.48407e-06
3.41548e-06
3.34831e-06
3.28632e-06
3.23283e-06
4.66449e-06
4.60972e-06
4.57935e-06
4.55952e-06
4.55262e-06
4.55438e-06
4.55836e-06
4.56658e-06
4.57684e-06
4.58871e-06
4.6023e-06
4.6172e-06
4.63393e-06
4.65282e-06
4.6737e-06
4.69614e-06
4.72043e-06
4.74591e-06
4.77282e-06
4.80095e-06
4.83037e-06
4.861e-06
4.89273e-06
4.92546e-06
4.9592e-06
4.99389e-06
5.02949e-06
5.06593e-06
5.10319e-06
5.14124e-06
5.18005e-06
5.21957e-06
5.25979e-06
5.30068e-06
5.34217e-06
5.38421e-06
5.42684e-06
5.4698e-06
5.51283e-06
5.55584e-06
5.5989e-06
5.64193e-06
5.68504e-06
5.72816e-06
5.77133e-06
5.81444e-06
5.85735e-06
5.89996e-06
5.94214e-06
5.98378e-06
6.02472e-06
6.0648e-06
6.10394e-06
6.14193e-06
6.17861e-06
6.21381e-06
6.24735e-06
6.27908e-06
6.30878e-06
6.33625e-06
6.36151e-06
6.38422e-06
6.4042e-06
6.42129e-06
6.43523e-06
6.44589e-06
6.45313e-06
6.45682e-06
6.45671e-06
6.45271e-06
6.44472e-06
6.43261e-06
6.4163e-06
6.39567e-06
6.37063e-06
6.34115e-06
6.30741e-06
6.26856e-06
6.22431e-06
6.17496e-06
6.12103e-06
6.06205e-06
5.99854e-06
5.93081e-06
5.8592e-06
5.78403e-06
5.70565e-06
5.62428e-06
5.54048e-06
5.4546e-06
5.36733e-06
5.27864e-06
5.18938e-06
5.10077e-06
5.01255e-06
4.92774e-06
4.84517e-06
4.76916e-06
4.70432e-06
5.72063e-06
5.66445e-06
5.6308e-06
5.60899e-06
5.60069e-06
5.60219e-06
5.60723e-06
5.61753e-06
5.63099e-06
5.64706e-06
5.66565e-06
5.68659e-06
5.70975e-06
5.73486e-06
5.76211e-06
5.79146e-06
5.82311e-06
5.85635e-06
5.89128e-06
5.92769e-06
5.96556e-06
6.00474e-06
6.04511e-06
6.08654e-06
6.12897e-06
6.17232e-06
6.21651e-06
6.26147e-06
6.30712e-06
6.35344e-06
6.40033e-06
6.44773e-06
6.49557e-06
6.54389e-06
6.59252e-06
6.64128e-06
6.68987e-06
6.73837e-06
6.78672e-06
6.83485e-06
6.88273e-06
6.93031e-06
6.97756e-06
7.02442e-06
7.07087e-06
7.11677e-06
7.16197e-06
7.20638e-06
7.24982e-06
7.29218e-06
7.33329e-06
7.37299e-06
7.41116e-06
7.44763e-06
7.48221e-06
7.51476e-06
7.54508e-06
7.57305e-06
7.59847e-06
7.62116e-06
7.64112e-06
7.65807e-06
7.67187e-06
7.6824e-06
7.68947e-06
7.69296e-06
7.69278e-06
7.68884e-06
7.68097e-06
7.66909e-06
7.65316e-06
7.63308e-06
7.60883e-06
7.5803e-06
7.5475e-06
7.51011e-06
7.46748e-06
7.42003e-06
7.36781e-06
7.31092e-06
7.24977e-06
7.18411e-06
7.11439e-06
7.04086e-06
6.96383e-06
6.88361e-06
6.80057e-06
6.71493e-06
6.62724e-06
6.53787e-06
6.44742e-06
6.35591e-06
6.26409e-06
6.17301e-06
6.08258e-06
5.99532e-06
5.91055e-06
5.83237e-06
5.76553e-06
6.42259e-06
6.37029e-06
6.33779e-06
6.31747e-06
6.3102e-06
6.31299e-06
6.32032e-06
6.33345e-06
6.35053e-06
6.37091e-06
6.39441e-06
6.42083e-06
6.44987e-06
6.48129e-06
6.51512e-06
6.551e-06
6.58884e-06
6.62849e-06
6.66991e-06
6.71295e-06
6.75745e-06
6.80327e-06
6.85023e-06
6.89818e-06
6.94704e-06
6.99669e-06
7.04702e-06
7.09793e-06
7.14933e-06
7.20118e-06
7.25336e-06
7.30574e-06
7.35821e-06
7.41056e-06
7.46276e-06
7.51472e-06
7.56628e-06
7.61741e-06
7.66805e-06
7.71812e-06
7.76756e-06
7.81628e-06
7.86424e-06
7.91132e-06
7.95748e-06
8.00258e-06
8.04645e-06
8.08898e-06
8.13001e-06
8.16941e-06
8.20702e-06
8.24267e-06
8.27627e-06
8.30762e-06
8.33659e-06
8.36303e-06
8.38679e-06
8.40774e-06
8.42575e-06
8.44068e-06
8.45251e-06
8.46105e-06
8.4662e-06
8.4679e-06
8.46601e-06
8.46048e-06
8.45127e-06
8.43832e-06
8.42155e-06
8.40093e-06
8.37645e-06
8.34806e-06
8.31576e-06
8.27948e-06
8.23881e-06
8.19364e-06
8.14413e-06
8.09053e-06
8.03296e-06
7.97154e-06
7.90659e-06
7.83803e-06
7.76626e-06
7.69148e-06
7.61401e-06
7.53414e-06
7.4522e-06
7.36846e-06
7.28339e-06
7.19733e-06
7.11075e-06
7.02371e-06
6.93677e-06
6.85075e-06
6.76564e-06
6.68339e-06
6.60371e-06
6.53019e-06
6.46718e-06
6.88018e-06
6.8352e-06
6.80748e-06
6.79177e-06
6.7882e-06
6.79446e-06
6.80586e-06
6.82321e-06
6.8449e-06
6.87024e-06
6.89898e-06
6.93088e-06
6.96556e-06
7.00278e-06
7.04244e-06
7.08417e-06
7.12791e-06
7.17334e-06
7.22039e-06
7.26878e-06
7.31848e-06
7.36935e-06
7.42122e-06
7.47393e-06
7.52735e-06
7.58136e-06
7.63581e-06
7.69059e-06
7.74555e-06
7.80054e-06
7.85548e-06
7.91025e-06
7.96473e-06
8.01879e-06
8.07234e-06
8.12527e-06
8.17745e-06
8.22882e-06
8.27929e-06
8.32878e-06
8.37721e-06
8.42448e-06
8.4705e-06
8.51516e-06
8.55838e-06
8.60001e-06
8.6399e-06
8.67793e-06
8.71394e-06
8.74781e-06
8.77939e-06
8.80854e-06
8.83515e-06
8.85909e-06
8.88021e-06
8.89842e-06
8.91359e-06
8.92565e-06
8.9345e-06
8.94005e-06
8.94229e-06
8.94113e-06
8.93651e-06
8.92841e-06
8.91679e-06
8.90163e-06
8.88295e-06
8.86075e-06
8.83501e-06
8.80573e-06
8.77295e-06
8.73665e-06
8.69684e-06
8.65322e-06
8.60575e-06
8.55468e-06
8.5002e-06
8.44252e-06
8.38183e-06
8.31827e-06
8.2521e-06
8.18337e-06
8.11239e-06
8.0394e-06
7.96465e-06
7.88843e-06
7.81104e-06
7.73273e-06
7.65389e-06
7.5748e-06
7.49581e-06
7.41697e-06
7.33866e-06
7.26148e-06
7.18545e-06
7.11206e-06
7.04131e-06
6.97619e-06
6.9205e-06
7.182e-06
7.14626e-06
7.12559e-06
7.11647e-06
7.11838e-06
7.12958e-06
7.14614e-06
7.1685e-06
7.19525e-06
7.22571e-06
7.25959e-06
7.29659e-06
7.33633e-06
7.37856e-06
7.42311e-06
7.4696e-06
7.51797e-06
7.56784e-06
7.61912e-06
7.67155e-06
7.72508e-06
7.77953e-06
7.83473e-06
7.89049e-06
7.94669e-06
8.00318e-06
8.0598e-06
8.11642e-06
8.17289e-06
8.22907e-06
8.28484e-06
8.34009e-06
8.39467e-06
8.44847e-06
8.50137e-06
8.55327e-06
8.60402e-06
8.65356e-06
8.70179e-06
8.74863e-06
8.79395e-06
8.83767e-06
8.87967e-06
8.91985e-06
8.95809e-06
8.99427e-06
9.02823e-06
9.05987e-06
9.08905e-06
9.11564e-06
9.13953e-06
9.1606e-06
9.17877e-06
9.19392e-06
9.20597e-06
9.21484e-06
9.22047e-06
9.22282e-06
9.22184e-06
9.2175e-06
9.20982e-06
9.19878e-06
9.18437e-06
9.16664e-06
9.14561e-06
9.1213e-06
9.09379e-06
9.06312e-06
9.02933e-06
8.99246e-06
8.95256e-06
8.90963e-06
8.86362e-06
8.81444e-06
8.76235e-06
8.70761e-06
8.65043e-06
8.59104e-06
8.52962e-06
8.46633e-06
8.40142e-06
8.33498e-06
8.26728e-06
8.19852e-06
8.12893e-06
8.05876e-06
7.98826e-06
7.91766e-06
7.84724e-06
7.77722e-06
7.70783e-06
7.6391e-06
7.57125e-06
7.50471e-06
7.43953e-06
7.37683e-06
7.31682e-06
7.26195e-06
7.21548e-06
7.38747e-06
7.3616e-06
7.34895e-06
7.34718e-06
7.35528e-06
7.37194e-06
7.39387e-06
7.42124e-06
7.45283e-06
7.48795e-06
7.52631e-06
7.5676e-06
7.61144e-06
7.65757e-06
7.70579e-06
7.75575e-06
7.80735e-06
7.86021e-06
7.91422e-06
7.96915e-06
8.0249e-06
8.0813e-06
8.13816e-06
8.19531e-06
8.25259e-06
8.30985e-06
8.36692e-06
8.42366e-06
8.47991e-06
8.53553e-06
8.59039e-06
8.64436e-06
8.6973e-06
8.74909e-06
8.7996e-06
8.84872e-06
8.89633e-06
8.94232e-06
8.98661e-06
9.0291e-06
9.06966e-06
9.1082e-06
9.14461e-06
9.17877e-06
9.21057e-06
9.2399e-06
9.26663e-06
9.29065e-06
9.31186e-06
9.33015e-06
9.34545e-06
9.35766e-06
9.36672e-06
9.37258e-06
9.37519e-06
9.37452e-06
9.37055e-06
9.36328e-06
9.35273e-06
9.33893e-06
9.32192e-06
9.30175e-06
9.27848e-06
9.25219e-06
9.22295e-06
9.19085e-06
9.15599e-06
9.11846e-06
9.07834e-06
9.03569e-06
8.99058e-06
8.94302e-06
8.89302e-06
8.84078e-06
8.78659e-06
8.73069e-06
8.67331e-06
8.61466e-06
8.55493e-06
8.49428e-06
8.4329e-06
8.37093e-06
8.30856e-06
8.24598e-06
8.18336e-06
8.12091e-06
8.05882e-06
7.99726e-06
7.93645e-06
7.87651e-06
7.81759e-06
7.75968e-06
7.7029e-06
7.64756e-06
7.59371e-06
7.54223e-06
7.49346e-06
7.44938e-06
7.41283e-06
7.534e-06
7.51766e-06
7.513e-06
7.51839e-06
7.53252e-06
7.5544e-06
7.58123e-06
7.61302e-06
7.64869e-06
7.68759e-06
7.72942e-06
7.77388e-06
7.82062e-06
7.86937e-06
7.91994e-06
7.97198e-06
8.02536e-06
8.07974e-06
8.13499e-06
8.19089e-06
8.24733e-06
8.30412e-06
8.36109e-06
8.41805e-06
8.47484e-06
8.53129e-06
8.58725e-06
8.64254e-06
8.69702e-06
8.75053e-06
8.80295e-06
8.85413e-06
8.90393e-06
8.95222e-06
8.9989e-06
9.04382e-06
9.08689e-06
9.12799e-06
9.16702e-06
9.2039e-06
9.23849e-06
9.2707e-06
9.30044e-06
9.32758e-06
9.35204e-06
9.37372e-06
9.3925e-06
9.40832e-06
9.4211e-06
9.43076e-06
9.43726e-06
9.44055e-06
9.44061e-06
9.43742e-06
9.43099e-06
9.42133e-06
9.40848e-06
9.39249e-06
9.37341e-06
9.35133e-06
9.32635e-06
9.29854e-06
9.26803e-06
9.23493e-06
9.19936e-06
9.16145e-06
9.12132e-06
9.07908e-06
9.03486e-06
8.98872e-06
8.94073e-06
8.89097e-06
8.83961e-06
8.78693e-06
8.73317e-06
8.67859e-06
8.62339e-06
8.56774e-06
8.51182e-06
8.45579e-06
8.39978e-06
8.34393e-06
8.28837e-06
8.23325e-06
8.17869e-06
8.12485e-06
8.07186e-06
8.01986e-06
7.96895e-06
7.91923e-06
7.87076e-06
7.8235e-06
7.77751e-06
7.73301e-06
7.69008e-06
7.64944e-06
7.61147e-06
7.57783e-06
7.55099e-06
7.64451e-06
7.63676e-06
7.63936e-06
7.65114e-06
7.67057e-06
7.6969e-06
7.72776e-06
7.76301e-06
7.80173e-06
7.84329e-06
7.88742e-06
7.93381e-06
7.98217e-06
8.03223e-06
8.08378e-06
8.13652e-06
8.1903e-06
8.2448e-06
8.29988e-06
8.35534e-06
8.41105e-06
8.46682e-06
8.52248e-06
8.57785e-06
8.63275e-06
8.68702e-06
8.74049e-06
8.79299e-06
8.84437e-06
8.89448e-06
8.94318e-06
8.99033e-06
9.03579e-06
9.07944e-06
9.12116e-06
9.16083e-06
9.19834e-06
9.23358e-06
9.26647e-06
9.2969e-06
9.32478e-06
9.35001e-06
9.37251e-06
9.39218e-06
9.40894e-06
9.42273e-06
9.43347e-06
9.44112e-06
9.44562e-06
9.44696e-06
9.44512e-06
9.44009e-06
9.43191e-06
9.42059e-06
9.40619e-06
9.38876e-06
9.36839e-06
9.34518e-06
9.31923e-06
9.29065e-06
9.25958e-06
9.22615e-06
9.19051e-06
9.1528e-06
9.11317e-06
9.07176e-06
9.02873e-06
8.9842e-06
8.93828e-06
8.89108e-06
8.84267e-06
8.79324e-06
8.74302e-06
8.69226e-06
8.64119e-06
8.59002e-06
8.53892e-06
8.48804e-06
8.43752e-06
8.38748e-06
8.33802e-06
8.28925e-06
8.24126e-06
8.19414e-06
8.14798e-06
8.10288e-06
8.05894e-06
8.01622e-06
7.9748e-06
7.93471e-06
7.89597e-06
7.85852e-06
7.8224e-06
7.78778e-06
7.75475e-06
7.72393e-06
7.69575e-06
7.67158e-06
7.65364e-06
7.73291e-06
7.73246e-06
7.7412e-06
7.75825e-06
7.78195e-06
7.81171e-06
7.84551e-06
7.88312e-06
7.92373e-06
7.96677e-06
8.01198e-06
8.05908e-06
8.1078e-06
8.15789e-06
8.20917e-06
8.26133e-06
8.31424e-06
8.36758e-06
8.42123e-06
8.475e-06
8.52872e-06
8.58224e-06
8.63538e-06
8.68795e-06
8.73979e-06
8.79073e-06
8.84059e-06
8.88921e-06
8.93645e-06
8.98214e-06
9.02616e-06
9.06836e-06
9.10862e-06
9.14681e-06
9.18282e-06
9.21655e-06
9.24789e-06
9.27675e-06
9.30304e-06
9.32668e-06
9.34757e-06
9.36566e-06
9.38086e-06
9.39312e-06
9.40239e-06
9.40861e-06
9.41177e-06
9.41184e-06
9.40882e-06
9.40272e-06
9.39356e-06
9.3814e-06
9.36628e-06
9.34828e-06
9.3275e-06
9.30402e-06
9.27798e-06
9.2495e-06
9.21872e-06
9.18578e-06
9.15085e-06
9.11408e-06
9.07564e-06
9.03568e-06
8.99438e-06
8.95187e-06
8.90831e-06
8.86383e-06
8.81854e-06
8.77254e-06
8.72598e-06
8.67908e-06
8.63203e-06
8.58507e-06
8.53838e-06
8.49211e-06
8.44641e-06
8.40139e-06
8.35715e-06
8.31378e-06
8.27134e-06
8.2299e-06
8.18951e-06
8.15024e-06
8.11213e-06
8.07525e-06
8.03965e-06
8.00538e-06
7.97245e-06
7.94089e-06
7.91068e-06
7.88178e-06
7.85419e-06
7.82808e-06
7.80356e-06
7.78119e-06
7.76139e-06
7.74538e-06
7.73513e-06
7.80766e-06
7.81305e-06
7.82667e-06
7.84773e-06
7.87454e-06
7.90662e-06
7.94221e-06
7.98105e-06
8.02241e-06
8.06578e-06
8.11091e-06
8.15757e-06
8.2055e-06
8.25449e-06
8.30434e-06
8.35481e-06
8.40572e-06
8.45682e-06
8.50796e-06
8.55896e-06
8.60967e-06
8.65993e-06
8.70956e-06
8.75839e-06
8.80624e-06
8.85296e-06
8.89838e-06
8.94233e-06
8.98467e-06
9.02525e-06
9.06395e-06
9.10063e-06
9.13518e-06
9.16748e-06
9.19744e-06
9.22495e-06
9.24993e-06
9.2723e-06
9.29199e-06
9.30892e-06
9.32305e-06
9.33431e-06
9.34266e-06
9.34808e-06
9.35054e-06
9.35004e-06
9.34657e-06
9.34015e-06
9.33083e-06
9.31864e-06
9.30366e-06
9.28596e-06
9.26564e-06
9.24281e-06
9.21758e-06
9.19008e-06
9.16048e-06
9.1289e-06
9.09552e-06
9.0605e-06
9.024e-06
8.9862e-06
8.94725e-06
8.90732e-06
8.86657e-06
8.82515e-06
8.78318e-06
8.7408e-06
8.6981e-06
8.65518e-06
8.61226e-06
8.56948e-06
8.52704e-06
8.4851e-06
8.4438e-06
8.40326e-06
8.36357e-06
8.32482e-06
8.28705e-06
8.25035e-06
8.21473e-06
8.18023e-06
8.14689e-06
8.11474e-06
8.08379e-06
8.05411e-06
8.02571e-06
7.99861e-06
7.97284e-06
7.94837e-06
7.92521e-06
7.90331e-06
7.88269e-06
7.86352e-06
7.84593e-06
7.83044e-06
7.81748e-06
7.80814e-06
7.80419e-06
7.87402e-06
7.88378e-06
7.90096e-06
7.92478e-06
7.95353e-06
7.98683e-06
8.02312e-06
8.06211e-06
8.10317e-06
8.14581e-06
8.18984e-06
8.23503e-06
8.28117e-06
8.32807e-06
8.37554e-06
8.42336e-06
8.47137e-06
8.51933e-06
8.56709e-06
8.6145e-06
8.6614e-06
8.70763e-06
8.75303e-06
8.79743e-06
8.84067e-06
8.88259e-06
8.92302e-06
8.96182e-06
8.99886e-06
9.03398e-06
9.06708e-06
9.09804e-06
9.12675e-06
9.15312e-06
9.17705e-06
9.19848e-06
9.21732e-06
9.23352e-06
9.24703e-06
9.2578e-06
9.2658e-06
9.271e-06
9.27339e-06
9.27296e-06
9.26974e-06
9.26374e-06
9.25501e-06
9.24358e-06
9.22955e-06
9.21297e-06
9.19395e-06
9.1726e-06
9.14903e-06
9.12338e-06
9.09579e-06
9.06641e-06
9.0354e-06
9.00291e-06
8.96911e-06
8.93417e-06
8.89824e-06
8.86149e-06
8.82408e-06
8.78615e-06
8.74783e-06
8.70927e-06
8.67057e-06
8.63185e-06
8.59319e-06
8.55469e-06
8.51654e-06
8.47884e-06
8.44175e-06
8.40539e-06
8.36984e-06
8.33518e-06
8.30148e-06
8.26877e-06
8.23711e-06
8.20651e-06
8.177e-06
8.14859e-06
8.12129e-06
8.09513e-06
8.07013e-06
8.0463e-06
8.02368e-06
8.00228e-06
7.9821e-06
7.96314e-06
7.94541e-06
7.92888e-06
7.91358e-06
7.8997e-06
7.8874e-06
7.87718e-06
7.86946e-06
7.86525e-06
7.86615e-06
7.93539e-06
7.94812e-06
7.9676e-06
7.99298e-06
8.0226e-06
8.0561e-06
8.09209e-06
8.13028e-06
8.17011e-06
8.21113e-06
8.25317e-06
8.29605e-06
8.33958e-06
8.38359e-06
8.42792e-06
8.47237e-06
8.51677e-06
8.56093e-06
8.6047e-06
8.64794e-06
8.69048e-06
8.7322e-06
8.77293e-06
8.81252e-06
8.8508e-06
8.88764e-06
8.92288e-06
8.95639e-06
8.98804e-06
9.01771e-06
9.04529e-06
9.07068e-06
9.0938e-06
9.11455e-06
9.13288e-06
9.14873e-06
9.16205e-06
9.17279e-06
9.18093e-06
9.18645e-06
9.18934e-06
9.1896e-06
9.18726e-06
9.18233e-06
9.17486e-06
9.1649e-06
9.15253e-06
9.13781e-06
9.12084e-06
9.10173e-06
9.08059e-06
9.05754e-06
9.03273e-06
9.00629e-06
8.97838e-06
8.94914e-06
8.91873e-06
8.8873e-06
8.85501e-06
8.82202e-06
8.78846e-06
8.75448e-06
8.72021e-06
8.68577e-06
8.65129e-06
8.61685e-06
8.58256e-06
8.54849e-06
8.51472e-06
8.48136e-06
8.44848e-06
8.4162e-06
8.38461e-06
8.35379e-06
8.32378e-06
8.29464e-06
8.26639e-06
8.23906e-06
8.21268e-06
8.18725e-06
8.16279e-06
8.1393e-06
8.11679e-06
8.09528e-06
8.07479e-06
8.05534e-06
8.03696e-06
8.01966e-06
8.00348e-06
7.98841e-06
7.97448e-06
7.96167e-06
7.95007e-06
7.93986e-06
7.93124e-06
7.92471e-06
7.92068e-06
7.92009e-06
7.92442e-06
7.99416e-06
8.00856e-06
8.02919e-06
8.05508e-06
8.0846e-06
8.1174e-06
8.15225e-06
8.18884e-06
8.22665e-06
8.26532e-06
8.30469e-06
8.3446e-06
8.3849e-06
8.42544e-06
8.46609e-06
8.50666e-06
8.54701e-06
8.58696e-06
8.62637e-06
8.66511e-06
8.70305e-06
8.74004e-06
8.77595e-06
8.81064e-06
8.84395e-06
8.87575e-06
8.90591e-06
8.93431e-06
8.96084e-06
8.98538e-06
9.00785e-06
9.02817e-06
9.04627e-06
9.06208e-06
9.07557e-06
9.08668e-06
9.0954e-06
9.1017e-06
9.10559e-06
9.10707e-06
9.10614e-06
9.10285e-06
9.09724e-06
9.08934e-06
9.07924e-06
9.06701e-06
9.05272e-06
9.03649e-06
9.01842e-06
8.99862e-06
8.97722e-06
8.95436e-06
8.93016e-06
8.90477e-06
8.87833e-06
8.85098e-06
8.82287e-06
8.79413e-06
8.7649e-06
8.73529e-06
8.70545e-06
8.67546e-06
8.64545e-06
8.6155e-06
8.5857e-06
8.55611e-06
8.52682e-06
8.49787e-06
8.46931e-06
8.4412e-06
8.41358e-06
8.38652e-06
8.36009e-06
8.33432e-06
8.30924e-06
8.28486e-06
8.26121e-06
8.23829e-06
8.21612e-06
8.1947e-06
8.17406e-06
8.15417e-06
8.13507e-06
8.11678e-06
8.09932e-06
8.08273e-06
8.06706e-06
8.05232e-06
8.03856e-06
8.02581e-06
8.0141e-06
8.00345e-06
7.99398e-06
7.98591e-06
7.97945e-06
7.97511e-06
7.97329e-06
7.9749e-06
7.98132e-06
8.05218e-06
8.06709e-06
8.08785e-06
8.11333e-06
8.14193e-06
8.1733e-06
8.20631e-06
8.24067e-06
8.2759e-06
8.31167e-06
8.34787e-06
8.38436e-06
8.42102e-06
8.45773e-06
8.49439e-06
8.53082e-06
8.5669e-06
8.60249e-06
8.63744e-06
8.67165e-06
8.70499e-06
8.73734e-06
8.76857e-06
8.79855e-06
8.82716e-06
8.85427e-06
8.87976e-06
8.90354e-06
8.92549e-06
8.94554e-06
8.96362e-06
8.97965e-06
8.9936e-06
9.00541e-06
9.01507e-06
9.02255e-06
9.02784e-06
9.03095e-06
9.0319e-06
9.03072e-06
9.02743e-06
9.0221e-06
9.01477e-06
9.00552e-06
8.99443e-06
8.98159e-06
8.96709e-06
8.95104e-06
8.93356e-06
8.91477e-06
8.89477e-06
8.87371e-06
8.85171e-06
8.82889e-06
8.80538e-06
8.7813e-06
8.75677e-06
8.7319e-06
8.7068e-06
8.68156e-06
8.65628e-06
8.63103e-06
8.60589e-06
8.58091e-06
8.55616e-06
8.53166e-06
8.50748e-06
8.48364e-06
8.46014e-06
8.43697e-06
8.41418e-06
8.3918e-06
8.36986e-06
8.34837e-06
8.32733e-06
8.30675e-06
8.28665e-06
8.26702e-06
8.24788e-06
8.22923e-06
8.2111e-06
8.19349e-06
8.17642e-06
8.15994e-06
8.14408e-06
8.1289e-06
8.11446e-06
8.1008e-06
8.08799e-06
8.07608e-06
8.06514e-06
8.0552e-06
8.04642e-06
8.03905e-06
8.03332e-06
8.02978e-06
8.02882e-06
8.03133e-06
8.0386e-06
8.11106e-06
8.12545e-06
8.14548e-06
8.1698e-06
8.19683e-06
8.22619e-06
8.25685e-06
8.28852e-06
8.32076e-06
8.3533e-06
8.38603e-06
8.41886e-06
8.4517e-06
8.48445e-06
8.51703e-06
8.54931e-06
8.58116e-06
8.61247e-06
8.64312e-06
8.67302e-06
8.70203e-06
8.73008e-06
8.75703e-06
8.78279e-06
8.80723e-06
8.83024e-06
8.85174e-06
8.87162e-06
8.88981e-06
8.90625e-06
8.92086e-06
8.93362e-06
8.94448e-06
8.95343e-06
8.96045e-06
8.96554e-06
8.96872e-06
8.97e-06
8.96942e-06
8.96701e-06
8.96284e-06
8.95697e-06
8.94945e-06
8.94038e-06
8.92984e-06
8.91792e-06
8.90473e-06
8.89036e-06
8.87493e-06
8.85854e-06
8.8413e-06
8.82333e-06
8.80473e-06
8.78562e-06
8.76608e-06
8.74621e-06
8.72611e-06
8.70585e-06
8.68552e-06
8.66516e-06
8.64485e-06
8.62463e-06
8.60454e-06
8.5846e-06
8.56485e-06
8.54531e-06
8.52598e-06
8.50689e-06
8.48795e-06
8.46914e-06
8.4505e-06
8.43202e-06
8.41372e-06
8.39558e-06
8.37759e-06
8.35977e-06
8.34211e-06
8.32462e-06
8.30732e-06
8.29022e-06
8.27335e-06
8.25672e-06
8.24039e-06
8.2244e-06
8.20881e-06
8.1937e-06
8.17914e-06
8.16522e-06
8.15201e-06
8.1396e-06
8.12809e-06
8.11753e-06
8.10811e-06
8.10014e-06
8.09386e-06
8.08985e-06
8.08852e-06
8.09072e-06
8.09774e-06
8.1723e-06
8.18531e-06
8.20389e-06
8.22645e-06
8.25141e-06
8.27837e-06
8.30634e-06
8.33504e-06
8.3641e-06
8.39325e-06
8.42242e-06
8.45156e-06
8.48061e-06
8.50949e-06
8.53814e-06
8.56646e-06
8.59435e-06
8.62171e-06
8.64844e-06
8.67446e-06
8.69966e-06
8.72397e-06
8.74728e-06
8.76949e-06
8.79051e-06
8.81025e-06
8.82862e-06
8.84554e-06
8.86095e-06
8.8748e-06
8.88705e-06
8.89767e-06
8.90664e-06
8.91394e-06
8.91959e-06
8.9236e-06
8.92599e-06
8.92679e-06
8.92605e-06
8.92381e-06
8.92015e-06
8.91511e-06
8.90879e-06
8.90125e-06
8.89259e-06
8.88289e-06
8.87225e-06
8.86076e-06
8.8485e-06
8.83559e-06
8.8221e-06
8.80813e-06
8.79377e-06
8.77908e-06
8.76415e-06
8.74903e-06
8.7338e-06
8.71849e-06
8.70316e-06
8.68782e-06
8.67252e-06
8.65726e-06
8.64207e-06
8.62693e-06
8.61186e-06
8.59685e-06
8.58188e-06
8.56696e-06
8.55189e-06
8.53671e-06
8.52141e-06
8.50597e-06
8.49037e-06
8.47461e-06
8.45868e-06
8.44256e-06
8.42628e-06
8.40984e-06
8.39326e-06
8.37656e-06
8.3598e-06
8.343e-06
8.32622e-06
8.30952e-06
8.293e-06
8.27675e-06
8.26088e-06
8.24548e-06
8.23067e-06
8.21656e-06
8.20327e-06
8.19091e-06
8.17967e-06
8.16991e-06
8.16192e-06
8.1563e-06
8.15347e-06
8.15432e-06
8.16009e-06
8.23737e-06
8.24827e-06
8.26484e-06
8.28522e-06
8.30778e-06
8.33209e-06
8.35721e-06
8.38286e-06
8.4087e-06
8.4345e-06
8.46022e-06
8.48583e-06
8.5113e-06
8.5366e-06
8.56166e-06
8.58643e-06
8.61082e-06
8.63475e-06
8.65813e-06
8.68091e-06
8.70299e-06
8.72431e-06
8.74477e-06
8.7643e-06
8.78281e-06
8.80021e-06
8.81645e-06
8.83145e-06
8.84516e-06
8.85755e-06
8.86858e-06
8.87824e-06
8.88651e-06
8.89341e-06
8.89893e-06
8.9031e-06
8.90596e-06
8.90753e-06
8.90787e-06
8.90704e-06
8.90509e-06
8.90208e-06
8.8981e-06
8.8932e-06
8.88747e-06
8.88099e-06
8.87384e-06
8.86609e-06
8.85781e-06
8.84909e-06
8.83999e-06
8.83057e-06
8.82089e-06
8.81101e-06
8.80097e-06
8.7908e-06
8.78053e-06
8.77019e-06
8.75979e-06
8.74932e-06
8.7388e-06
8.72821e-06
8.71753e-06
8.70676e-06
8.69586e-06
8.68481e-06
8.67358e-06
8.6621e-06
8.65017e-06
8.63782e-06
8.62502e-06
8.61174e-06
8.59796e-06
8.58366e-06
8.56882e-06
8.55345e-06
8.53756e-06
8.52117e-06
8.5043e-06
8.487e-06
8.46932e-06
8.4513e-06
8.43303e-06
8.41459e-06
8.39609e-06
8.37764e-06
8.35939e-06
8.34145e-06
8.32398e-06
8.30711e-06
8.291e-06
8.27576e-06
8.26166e-06
8.24906e-06
8.23833e-06
8.23007e-06
8.22478e-06
8.22334e-06
8.22701e-06
8.30773e-06
8.31595e-06
8.33009e-06
8.348e-06
8.36799e-06
8.38957e-06
8.41183e-06
8.43451e-06
8.45727e-06
8.47992e-06
8.50246e-06
8.52488e-06
8.54717e-06
8.56933e-06
8.59132e-06
8.6131e-06
8.63461e-06
8.65578e-06
8.67654e-06
8.69685e-06
8.71663e-06
8.73582e-06
8.75435e-06
8.77214e-06
8.78911e-06
8.8052e-06
8.82035e-06
8.8345e-06
8.84761e-06
8.85965e-06
8.87059e-06
8.88043e-06
8.88915e-06
8.89676e-06
8.90329e-06
8.90875e-06
8.91318e-06
8.91661e-06
8.91909e-06
8.92068e-06
8.92142e-06
8.92137e-06
8.9206e-06
8.91917e-06
8.91714e-06
8.91457e-06
8.91153e-06
8.90807e-06
8.90425e-06
8.90012e-06
8.89572e-06
8.8911e-06
8.88627e-06
8.88128e-06
8.87613e-06
8.87084e-06
8.8654e-06
8.85981e-06
8.85407e-06
8.84814e-06
8.84201e-06
8.83563e-06
8.82898e-06
8.82201e-06
8.81469e-06
8.80699e-06
8.79886e-06
8.79006e-06
8.78052e-06
8.77023e-06
8.75914e-06
8.74721e-06
8.73442e-06
8.72074e-06
8.70615e-06
8.69066e-06
8.6743e-06
8.65708e-06
8.63905e-06
8.62026e-06
8.60078e-06
8.58066e-06
8.56001e-06
8.53892e-06
8.51752e-06
8.49597e-06
8.47442e-06
8.45303e-06
8.43198e-06
8.41143e-06
8.39156e-06
8.37254e-06
8.35464e-06
8.33829e-06
8.32389e-06
8.31212e-06
8.30349e-06
8.29896e-06
8.29981e-06
8.38483e-06
8.38993e-06
8.40136e-06
8.41665e-06
8.43403e-06
8.45295e-06
8.47249e-06
8.49241e-06
8.51237e-06
8.53224e-06
8.552e-06
8.5717e-06
8.59134e-06
8.61093e-06
8.63049e-06
8.64996e-06
8.66932e-06
8.6885e-06
8.70747e-06
8.72616e-06
8.74452e-06
8.76251e-06
8.78004e-06
8.79706e-06
8.8135e-06
8.82929e-06
8.84438e-06
8.85871e-06
8.87226e-06
8.88498e-06
8.89687e-06
8.9079e-06
8.91808e-06
8.92741e-06
8.93591e-06
8.9436e-06
8.95051e-06
8.95666e-06
8.96211e-06
8.96689e-06
8.97105e-06
8.97464e-06
8.9777e-06
8.98028e-06
8.98243e-06
8.9842e-06
8.98562e-06
8.98674e-06
8.98758e-06
8.98818e-06
8.98856e-06
8.98873e-06
8.98869e-06
8.98846e-06
8.98802e-06
8.98736e-06
8.98646e-06
8.98529e-06
8.98381e-06
8.98198e-06
8.97976e-06
8.97709e-06
8.97392e-06
8.9702e-06
8.96586e-06
8.96086e-06
8.95515e-06
8.94838e-06
8.94055e-06
8.93161e-06
8.92153e-06
8.91023e-06
8.8977e-06
8.88391e-06
8.86884e-06
8.8525e-06
8.83493e-06
8.81615e-06
8.79622e-06
8.7752e-06
8.75317e-06
8.7302e-06
8.7064e-06
8.68191e-06
8.65685e-06
8.63142e-06
8.60579e-06
8.58016e-06
8.55474e-06
8.52972e-06
8.50531e-06
8.48169e-06
8.4592e-06
8.43829e-06
8.41944e-06
8.40338e-06
8.39069e-06
8.38238e-06
8.37982e-06
8.47008e-06
8.47173e-06
8.4803e-06
8.49296e-06
8.50781e-06
8.52424e-06
8.54133e-06
8.55881e-06
8.57639e-06
8.59392e-06
8.61143e-06
8.62897e-06
8.64658e-06
8.66429e-06
8.68211e-06
8.70003e-06
8.71803e-06
8.73605e-06
8.75406e-06
8.77201e-06
8.78985e-06
8.80754e-06
8.82501e-06
8.8422e-06
8.85905e-06
8.87548e-06
8.89145e-06
8.90691e-06
8.92182e-06
8.93614e-06
8.94986e-06
8.96296e-06
8.97544e-06
8.9873e-06
8.99855e-06
9.0092e-06
9.01927e-06
9.0288e-06
9.0378e-06
9.04633e-06
9.05439e-06
9.06204e-06
9.0693e-06
9.07621e-06
9.08279e-06
9.08908e-06
9.09509e-06
9.10086e-06
9.10637e-06
9.11166e-06
9.11671e-06
9.12151e-06
9.12607e-06
9.13034e-06
9.13432e-06
9.13795e-06
9.14121e-06
9.14404e-06
9.14639e-06
9.14819e-06
9.14939e-06
9.14992e-06
9.1497e-06
9.14868e-06
9.14676e-06
9.14389e-06
9.13999e-06
9.13466e-06
9.12793e-06
9.11975e-06
9.11006e-06
9.09879e-06