/*--------------------------------*- C++ -*----------------------------------*\
| =========                 |                                                 |
| \\      /  F ield         | OpenFOAM: The Open Source CFD Toolbox           |
|  \\    /   O peration     | Version:  2112                                  |
|   \\  /    A nd           | Website:  www.openfoam.com                      |
|    \\/     M anipulation  |                                                 |
\*---------------------------------------------------------------------------*/
FoamFile
{
    version     2.0;
    format      ascii;
    arch        "LSB;label=32;scalar=64";
    class       volScalarField;
    location    "2858";
    object      nut;
}
// * * * * * * * * * * * * * * * * * * * * * * * * * * * * * * * * * * * * * //

dimensions      [0 2 -1 0 0 0 0];

internalField   nonuniform List<scalar> 
14751
(
1.14366e-09
1.13832e-09
1.14078e-09
1.13208e-09
1.12482e-09
1.11097e-09
1.09428e-09
1.07458e-09
1.05156e-09
1.02624e-09
9.98955e-10
9.70054e-10
9.39835e-10
9.0915e-10
8.78252e-10
8.47573e-10
8.1744e-10
7.87939e-10
7.59419e-10
7.31999e-10
7.0594e-10
6.8115e-10
6.57717e-10
6.35734e-10
6.15265e-10
5.96128e-10
5.78315e-10
5.61773e-10
5.46453e-10
5.32387e-10
5.19515e-10
5.07785e-10
4.97145e-10
4.87539e-10
4.78934e-10
4.71231e-10
4.64369e-10
4.58368e-10
4.53192e-10
4.4875e-10
4.44972e-10
4.41959e-10
4.39676e-10
4.38135e-10
4.37336e-10
4.37181e-10
4.37674e-10
4.38802e-10
4.40558e-10
4.42944e-10
4.45941e-10
4.4958e-10
4.53866e-10
4.58767e-10
4.64296e-10
4.7045e-10
4.77236e-10
4.84661e-10
4.92704e-10
5.01445e-10
5.10904e-10
5.21023e-10
5.31829e-10
5.43179e-10
5.55057e-10
5.67553e-10
5.80648e-10
5.94285e-10
6.08422e-10
6.23111e-10
6.38312e-10
6.54009e-10
6.7018e-10
6.86788e-10
7.03822e-10
7.21268e-10
7.3909e-10
7.57294e-10
7.75832e-10
7.94735e-10
8.13983e-10
8.33492e-10
8.53424e-10
8.73576e-10
8.94023e-10
9.14743e-10
9.35665e-10
9.56657e-10
9.77617e-10
9.98479e-10
1.01898e-09
1.03891e-09
1.05847e-09
1.07651e-09
1.09317e-09
1.10833e-09
1.11981e-09
1.12663e-09
1.13924e-09
5.19192e-09
5.10122e-09
5.05439e-09
4.99588e-09
4.94631e-09
4.89482e-09
4.83909e-09
4.783e-09
4.72401e-09
4.66406e-09
4.60315e-09
4.54236e-09
4.48083e-09
4.42049e-09
4.36219e-09
4.30557e-09
4.2523e-09
4.20108e-09
4.15319e-09
4.10848e-09
4.06796e-09
4.0311e-09
3.99802e-09
3.96893e-09
3.94435e-09
3.9234e-09
3.90593e-09
3.89191e-09
3.88109e-09
3.87385e-09
3.87018e-09
3.86997e-09
3.87315e-09
3.87962e-09
3.88928e-09
3.9019e-09
3.91706e-09
3.93505e-09
3.95586e-09
3.97913e-09
4.00424e-09
4.0323e-09
4.06301e-09
4.09685e-09
4.13362e-09
4.1728e-09
4.21402e-09
4.25728e-09
4.30248e-09
4.34957e-09
4.3984e-09
4.44899e-09
4.50135e-09
4.55508e-09
4.61005e-09
4.66612e-09
4.72311e-09
4.78089e-09
4.83927e-09
4.89847e-09
4.95871e-09
5.01927e-09
5.0798e-09
5.13924e-09
5.19714e-09
5.25396e-09
5.30946e-09
5.36314e-09
5.4145e-09
5.46372e-09
5.51057e-09
5.55475e-09
5.59606e-09
5.63417e-09
5.66886e-09
5.69996e-09
5.72728e-09
5.75044e-09
5.76972e-09
5.78413e-09
5.79423e-09
5.79907e-09
5.80023e-09
5.79641e-09
5.78788e-09
5.775e-09
5.75797e-09
5.73628e-09
5.7103e-09
5.67995e-09
5.64652e-09
5.60883e-09
5.56775e-09
5.523e-09
5.47069e-09
5.41713e-09
5.35284e-09
5.28164e-09
5.21781e-09
8.37825e-08
8.22218e-08
8.1605e-08
8.11438e-08
8.09627e-08
8.09154e-08
8.08841e-08
8.09245e-08
8.09784e-08
8.10587e-08
8.11535e-08
8.12761e-08
8.13996e-08
8.15411e-08
8.17078e-08
8.18841e-08
8.20958e-08
8.23134e-08
8.25578e-08
8.28219e-08
8.31221e-08
8.34506e-08
8.38085e-08
8.41967e-08
8.46247e-08
8.50821e-08
8.55679e-08
8.60825e-08
8.66232e-08
8.71971e-08
8.7806e-08
8.84493e-08
8.91282e-08
8.98421e-08
9.05905e-08
9.13718e-08
9.21793e-08
9.30185e-08
9.38903e-08
9.47909e-08
9.57098e-08
9.66678e-08
9.76543e-08
9.8686e-08
9.97475e-08
1.00823e-07
1.01917e-07
1.03032e-07
1.04161e-07
1.05305e-07
1.06458e-07
1.07618e-07
1.08785e-07
1.0995e-07
1.11107e-07
1.12252e-07
1.13379e-07
1.14483e-07
1.15559e-07
1.16604e-07
1.17622e-07
1.18596e-07
1.19515e-07
1.20364e-07
1.21128e-07
1.21812e-07
1.22408e-07
1.22907e-07
1.23297e-07
1.23578e-07
1.23745e-07
1.23792e-07
1.23715e-07
1.23507e-07
1.23165e-07
1.22687e-07
1.22072e-07
1.21314e-07
1.20423e-07
1.1938e-07
1.18204e-07
1.16876e-07
1.15441e-07
1.13878e-07
1.122e-07
1.10423e-07
1.08559e-07
1.06609e-07
1.04594e-07
1.0252e-07
1.00431e-07
9.83024e-08
9.61687e-08
9.40669e-08
9.19281e-08
8.99192e-08
8.78999e-08
8.60027e-08
8.43722e-08
5.24654e-07
5.16818e-07
5.15373e-07
5.1577e-07
5.18834e-07
5.23323e-07
5.27947e-07
5.33171e-07
5.3871e-07
5.44631e-07
5.50784e-07
5.57243e-07
5.63812e-07
5.70538e-07
5.77421e-07
5.8435e-07
5.91441e-07
5.98504e-07
6.05645e-07
6.12803e-07
6.20055e-07
6.27353e-07
6.34691e-07
6.42055e-07
6.49485e-07
6.56937e-07
6.64405e-07
6.71889e-07
6.79375e-07
6.86895e-07
6.94458e-07
7.02062e-07
7.09717e-07
7.17419e-07
7.25166e-07
7.32955e-07
7.40755e-07
7.48586e-07
7.56461e-07
7.64364e-07
7.72235e-07
7.80225e-07
7.8818e-07
7.95967e-07
8.03765e-07
8.11507e-07
8.19192e-07
8.2681e-07
8.34332e-07
8.4174e-07
8.49002e-07
8.5609e-07
8.63001e-07
8.6967e-07
8.7606e-07
8.82137e-07
8.87856e-07
8.93186e-07
8.98081e-07
9.02494e-07
9.06475e-07
9.09888e-07
9.12691e-07
9.14817e-07
9.16163e-07
9.16743e-07
9.16518e-07
9.15447e-07
9.13453e-07
9.10537e-07
9.06684e-07
9.0186e-07
8.96059e-07
8.89255e-07
8.81447e-07
8.72648e-07
8.62874e-07
8.52092e-07
8.40422e-07
8.27741e-07
8.14202e-07
7.99698e-07
7.84612e-07
7.68801e-07
7.52387e-07
7.35496e-07
7.18248e-07
7.0068e-07
6.82962e-07
6.65155e-07
6.4742e-07
6.2975e-07
6.12435e-07
5.95738e-07
5.7948e-07
5.64522e-07
5.50348e-07
5.37895e-07
5.2788e-07
1.62996e-06
1.61354e-06
1.61553e-06
1.62448e-06
1.64279e-06
1.66654e-06
1.69179e-06
1.71979e-06
1.74875e-06
1.77823e-06
1.80875e-06
1.84068e-06
1.87324e-06
1.90649e-06
1.94026e-06
1.97419e-06
2.0085e-06
2.04259e-06
2.0767e-06
2.11059e-06
2.14439e-06
2.17795e-06
2.2112e-06
2.24404e-06
2.27652e-06
2.30853e-06
2.34006e-06
2.37107e-06
2.40153e-06
2.43147e-06
2.4609e-06
2.48981e-06
2.51822e-06
2.54611e-06
2.57348e-06
2.60031e-06
2.62658e-06
2.65227e-06
2.67746e-06
2.70215e-06
2.7259e-06
2.74846e-06
2.77027e-06
2.79121e-06
2.81154e-06
2.83112e-06
2.84989e-06
2.86786e-06
2.88492e-06
2.90105e-06
2.91616e-06
2.93018e-06
2.94311e-06
2.95481e-06
2.96518e-06
2.97417e-06
2.98166e-06
2.98761e-06
2.9919e-06
2.99441e-06
2.9953e-06
2.99426e-06
2.99122e-06
2.98608e-06
2.97864e-06
2.96891e-06
2.95683e-06
2.94234e-06
2.92527e-06
2.90565e-06
2.88347e-06
2.85867e-06
2.83127e-06
2.80125e-06
2.76862e-06
2.73347e-06
2.69591e-06
2.65575e-06
2.61359e-06
2.56891e-06
2.52217e-06
2.47284e-06
2.42133e-06
2.36827e-06
2.31401e-06
2.25892e-06
2.2033e-06
2.14735e-06
2.09153e-06
2.03607e-06
1.98146e-06
1.9277e-06
1.87554e-06
1.82573e-06
1.77813e-06
1.73487e-06
1.69509e-06
1.66165e-06
1.63668e-06
3.35061e-06
3.33134e-06
3.34613e-06
3.37596e-06
3.42523e-06
3.4863e-06
3.55148e-06
3.62292e-06
3.69709e-06
3.77315e-06
3.85084e-06
3.92901e-06
4.00823e-06
4.08887e-06
4.17035e-06
4.25183e-06
4.33356e-06
4.41435e-06
4.4945e-06
4.57354e-06
4.65158e-06
4.7283e-06
4.80351e-06
4.877e-06
4.94879e-06
5.01871e-06
5.08671e-06
5.15271e-06
5.21667e-06
5.27861e-06
5.33852e-06
5.39639e-06
5.45224e-06
5.50613e-06
5.55795e-06
5.60771e-06
5.65561e-06
5.70126e-06
5.74419e-06
5.78434e-06
5.82196e-06
5.85705e-06
5.8899e-06
5.92048e-06
5.94906e-06
5.97548e-06
5.99965e-06
6.02159e-06
6.04118e-06
6.05839e-06
6.07313e-06
6.0853e-06
6.09494e-06
6.10188e-06
6.10601e-06
6.10728e-06
6.10556e-06
6.1008e-06
6.09288e-06
6.08162e-06
6.06733e-06
6.04958e-06
6.02828e-06
6.00339e-06
5.97461e-06
5.94199e-06
5.90547e-06
5.86498e-06
5.82033e-06
5.77154e-06
5.71863e-06
5.66157e-06
5.6004e-06
5.53514e-06
5.46588e-06
5.39272e-06
5.31625e-06
5.23523e-06
5.14937e-06
5.05943e-06
4.96639e-06
4.86982e-06
4.77063e-06
4.66942e-06
4.56682e-06
4.46341e-06
4.35973e-06
4.25616e-06
4.15351e-06
4.0522e-06
3.95307e-06
3.85617e-06
3.7627e-06
3.67409e-06
3.59038e-06
3.51519e-06
3.44764e-06
3.39335e-06
3.3569e-06
5.53178e-06
5.51906e-06
5.55819e-06
5.62255e-06
5.7182e-06
5.83331e-06
5.95581e-06
6.08851e-06
6.22584e-06
6.36621e-06
6.50866e-06
6.65219e-06
6.79595e-06
6.93877e-06
7.08088e-06
7.22218e-06
7.36305e-06
7.50137e-06
7.63745e-06
7.77065e-06
7.90096e-06
8.02791e-06
8.15119e-06
8.2705e-06
8.38583e-06
8.49697e-06
8.60386e-06
8.70641e-06
8.8046e-06
8.8985e-06
8.98809e-06
9.07329e-06
9.15421e-06
9.23116e-06
9.30383e-06
9.37181e-06
9.4344e-06
9.49222e-06
9.54534e-06
9.59388e-06
9.63796e-06
9.67774e-06
9.71344e-06
9.74511e-06
9.77303e-06
9.79708e-06
9.8172e-06
9.83342e-06
9.84565e-06
9.85393e-06
9.85816e-06
9.8583e-06
9.85444e-06
9.84641e-06
9.83415e-06
9.81765e-06
9.79679e-06
9.77157e-06
9.74186e-06
9.70754e-06
9.66894e-06
9.62563e-06
9.57754e-06
9.52464e-06
9.46665e-06
9.40361e-06
9.33546e-06
9.26215e-06
9.18348e-06
9.09947e-06
9.01018e-06
8.91559e-06
8.81584e-06
8.711e-06
8.60135e-06
8.48622e-06
8.36386e-06
8.2359e-06
8.10268e-06
7.96474e-06
7.82321e-06
7.67774e-06
7.52967e-06
7.37957e-06
7.22834e-06
7.07677e-06
6.92563e-06
6.77548e-06
6.62742e-06
6.48211e-06
6.34064e-06
6.20311e-06
6.07119e-06
5.947e-06
5.83086e-06
5.72803e-06
5.63785e-06
5.56909e-06
5.52869e-06
8.10216e-06
8.10545e-06
8.18046e-06
8.29244e-06
8.44836e-06
8.6319e-06
8.82609e-06
9.03414e-06
9.24812e-06
9.46543e-06
9.68448e-06
9.90399e-06
1.01221e-05
1.03376e-05
1.05504e-05
1.07588e-05
1.09624e-05
1.11609e-05
1.13545e-05
1.15429e-05
1.17257e-05
1.19022e-05
1.20721e-05
1.22349e-05
1.23908e-05
1.25396e-05
1.26811e-05
1.28153e-05
1.29423e-05
1.30623e-05
1.31754e-05
1.32812e-05
1.33797e-05
1.34703e-05
1.35534e-05
1.36292e-05
1.36975e-05
1.37588e-05
1.38133e-05
1.38613e-05
1.39028e-05
1.39382e-05
1.39677e-05
1.39913e-05
1.40095e-05
1.40221e-05
1.40292e-05
1.40309e-05
1.40271e-05
1.4018e-05
1.40035e-05
1.39836e-05
1.39586e-05
1.39282e-05
1.38925e-05
1.38515e-05
1.38052e-05
1.37536e-05
1.36966e-05
1.36342e-05
1.35666e-05
1.34936e-05
1.34149e-05
1.33306e-05
1.32406e-05
1.31447e-05
1.30429e-05
1.29352e-05
1.28214e-05
1.27014e-05
1.25754e-05
1.24434e-05
1.23056e-05
1.2162e-05
1.20107e-05
1.18511e-05
1.16844e-05
1.15117e-05
1.13336e-05
1.11505e-05
1.09637e-05
1.07729e-05
1.05798e-05
1.0385e-05
1.01895e-05
9.99438e-06
9.80059e-06
9.60883e-06
9.42051e-06
9.2364e-06
9.0579e-06
8.88506e-06
8.72007e-06
8.56579e-06
8.42285e-06
8.29839e-06
8.19204e-06
8.11601e-06
8.0797e-06
1.10477e-05
1.10745e-05
1.11949e-05
1.13652e-05
1.15919e-05
1.18543e-05
1.21301e-05
1.24225e-05
1.27211e-05
1.3022e-05
1.33231e-05
1.36227e-05
1.3918e-05
1.42079e-05
1.44917e-05
1.47673e-05
1.50351e-05
1.52934e-05
1.55428e-05
1.57819e-05
1.60114e-05
1.62312e-05
1.64409e-05
1.66403e-05
1.68293e-05
1.70078e-05
1.71758e-05
1.73333e-05
1.74802e-05
1.76162e-05
1.77416e-05
1.78567e-05
1.79615e-05
1.80559e-05
1.81403e-05
1.82151e-05
1.82803e-05
1.83364e-05
1.83837e-05
1.84227e-05
1.84534e-05
1.84764e-05
1.84918e-05
1.84999e-05
1.85009e-05
1.84951e-05
1.84825e-05
1.84633e-05
1.84376e-05
1.84055e-05
1.83671e-05
1.83225e-05
1.8272e-05
1.82155e-05
1.81531e-05
1.80848e-05
1.80108e-05
1.7931e-05
1.78454e-05
1.77541e-05
1.76572e-05
1.75546e-05
1.7446e-05
1.73315e-05
1.72109e-05
1.70842e-05
1.69512e-05
1.6812e-05
1.66662e-05
1.65138e-05
1.6355e-05
1.61897e-05
1.60181e-05
1.58375e-05
1.56471e-05
1.54488e-05
1.52435e-05
1.5032e-05
1.4815e-05
1.4593e-05
1.43673e-05
1.41377e-05
1.3906e-05
1.36728e-05
1.34394e-05
1.32071e-05
1.29769e-05
1.27496e-05
1.25269e-05
1.23097e-05
1.20997e-05
1.18968e-05
1.17037e-05
1.15242e-05
1.13593e-05
1.12181e-05
1.11007e-05
1.1023e-05
1.09974e-05
1.43741e-05
1.44289e-05
1.46006e-05
1.48358e-05
1.51393e-05
1.54857e-05
1.58475e-05
1.62275e-05
1.66127e-05
1.69979e-05
1.73804e-05
1.77581e-05
1.81278e-05
1.8488e-05
1.88379e-05
1.9175e-05
1.95003e-05
1.98111e-05
2.01085e-05
2.03913e-05
2.06604e-05
2.09156e-05
2.11567e-05
2.13833e-05
2.15957e-05
2.17939e-05
2.19779e-05
2.21479e-05
2.23039e-05
2.2446e-05
2.25746e-05
2.26901e-05
2.27927e-05
2.28826e-05
2.29604e-05
2.30265e-05
2.3081e-05
2.31247e-05
2.31581e-05
2.31815e-05
2.31954e-05
2.32001e-05
2.3196e-05
2.31834e-05
2.31629e-05
2.31345e-05
2.30986e-05
2.30553e-05
2.3005e-05
2.29477e-05
2.28839e-05
2.28135e-05
2.2737e-05
2.26543e-05
2.25657e-05
2.24712e-05
2.2371e-05
2.22652e-05
2.21537e-05
2.20366e-05
2.19141e-05
2.17859e-05
2.1652e-05
2.15123e-05
2.13666e-05
2.12147e-05
2.10567e-05
2.08922e-05
2.07211e-05
2.05433e-05
2.03586e-05
2.01669e-05
1.99668e-05
1.97547e-05
1.95335e-05
1.93046e-05
1.90687e-05
1.88264e-05
1.85785e-05
1.83253e-05
1.80683e-05
1.78071e-05
1.75438e-05
1.7279e-05
1.70142e-05
1.67506e-05
1.64895e-05
1.62318e-05
1.59795e-05
1.57334e-05
1.54955e-05
1.52657e-05
1.50474e-05
1.48451e-05
1.46604e-05
1.45047e-05
1.43785e-05
1.43018e-05
1.42905e-05
1.80891e-05
1.81725e-05
1.83972e-05
1.86995e-05
1.90805e-05
1.95109e-05
1.99577e-05
2.04233e-05
2.08917e-05
2.13568e-05
2.18154e-05
2.22649e-05
2.27017e-05
2.31244e-05
2.35319e-05
2.39217e-05
2.42951e-05
2.46488e-05
2.49846e-05
2.53013e-05
2.56001e-05
2.58808e-05
2.61433e-05
2.63876e-05
2.66139e-05
2.68224e-05
2.70134e-05
2.71872e-05
2.7344e-05
2.74843e-05
2.76085e-05
2.77172e-05
2.78109e-05
2.789e-05
2.79551e-05
2.80069e-05
2.80457e-05
2.80723e-05
2.80874e-05
2.80914e-05
2.80849e-05
2.80684e-05
2.80424e-05
2.80074e-05
2.79638e-05
2.7912e-05
2.78523e-05
2.77853e-05
2.7711e-05
2.76301e-05
2.75426e-05
2.74489e-05
2.73494e-05
2.72442e-05
2.71335e-05
2.70176e-05
2.68964e-05
2.67703e-05
2.66391e-05
2.65029e-05
2.63619e-05
2.62158e-05
2.60644e-05
2.59077e-05
2.57454e-05
2.55773e-05
2.54032e-05
2.52227e-05
2.50355e-05
2.48413e-05
2.46398e-05
2.44306e-05
2.42078e-05
2.39743e-05
2.37319e-05
2.34816e-05
2.32239e-05
2.29593e-05
2.26884e-05
2.24114e-05
2.21301e-05
2.18438e-05
2.15547e-05
2.12635e-05
2.09717e-05
2.06807e-05
2.03919e-05
2.01063e-05
1.98261e-05
1.95522e-05
1.92869e-05
1.90301e-05
1.87858e-05
1.85595e-05
1.83535e-05
1.81816e-05
1.8045e-05
1.79682e-05
1.79709e-05
2.21967e-05
2.23057e-05
2.25809e-05
2.29481e-05
2.34027e-05
2.39124e-05
2.44391e-05
2.4984e-05
2.55286e-05
2.60658e-05
2.65918e-05
2.71041e-05
2.75986e-05
2.8074e-05
2.85292e-05
2.89617e-05
2.93729e-05
2.97596e-05
3.01239e-05
3.04648e-05
3.07838e-05
3.10808e-05
3.1356e-05
3.16094e-05
3.18415e-05
3.20526e-05
3.22434e-05
3.24142e-05
3.25656e-05
3.26982e-05
3.28128e-05
3.29099e-05
3.29903e-05
3.30547e-05
3.31038e-05
3.31385e-05
3.31591e-05
3.31668e-05
3.31621e-05
3.31459e-05
3.31187e-05
3.30812e-05
3.3034e-05
3.29777e-05
3.29129e-05
3.28401e-05
3.27597e-05
3.26725e-05
3.25786e-05
3.24786e-05
3.23729e-05
3.22617e-05
3.21457e-05
3.2025e-05
3.18997e-05
3.17702e-05
3.16367e-05
3.14991e-05
3.13576e-05
3.12122e-05
3.10627e-05
3.09091e-05
3.0751e-05
3.05882e-05
3.04203e-05
3.0247e-05
3.00678e-05
2.98823e-05
2.96898e-05
2.94899e-05
2.92821e-05
2.90617e-05
2.88274e-05
2.85826e-05
2.83284e-05
2.80654e-05
2.77939e-05
2.75141e-05
2.72268e-05
2.69317e-05
2.66309e-05
2.63234e-05
2.60115e-05
2.56959e-05
2.53783e-05
2.50602e-05
2.47432e-05
2.44282e-05
2.41177e-05
2.3813e-05
2.35164e-05
2.32281e-05
2.29526e-05
2.26969e-05
2.24638e-05
2.22696e-05
2.21169e-05
2.20346e-05
2.20468e-05
2.6697e-05
2.68255e-05
2.71449e-05
2.75711e-05
2.80922e-05
2.86733e-05
2.92717e-05
2.9887e-05
3.04986e-05
3.10982e-05
3.16819e-05
3.22468e-05
3.27891e-05
3.33071e-05
3.38001e-05
3.42656e-05
3.47053e-05
3.51159e-05
3.55e-05
3.58569e-05
3.61882e-05
3.64941e-05
3.6775e-05
3.7031e-05
3.7263e-05
3.74715e-05
3.76573e-05
3.78208e-05
3.79631e-05
3.8085e-05
3.81872e-05
3.82707e-05
3.83364e-05
3.83851e-05
3.84177e-05
3.84352e-05
3.84384e-05
3.84281e-05
3.84054e-05
3.83711e-05
3.8326e-05
3.82708e-05
3.82063e-05
3.81332e-05
3.80523e-05
3.79642e-05
3.78694e-05
3.77687e-05
3.76626e-05
3.75516e-05
3.74361e-05
3.73166e-05
3.71937e-05
3.70675e-05
3.69382e-05
3.68063e-05
3.66717e-05
3.65346e-05
3.63949e-05
3.62525e-05
3.61072e-05
3.59587e-05
3.58066e-05
3.56505e-05
3.54897e-05
3.53237e-05
3.51517e-05
3.49731e-05
3.47867e-05
3.45917e-05
3.4387e-05
3.41642e-05
3.39284e-05
3.36812e-05
3.34229e-05
3.3154e-05
3.28744e-05
3.25841e-05
3.22838e-05
3.19731e-05
3.1654e-05
3.13253e-05
3.09895e-05
3.06474e-05
3.03007e-05
2.99513e-05
2.96006e-05
2.925e-05
2.89022e-05
2.85587e-05
2.82223e-05
2.78932e-05
2.75768e-05
2.72814e-05
2.70109e-05
2.67843e-05
2.66055e-05
2.65084e-05
2.6522e-05
3.15879e-05
3.17275e-05
3.20821e-05
3.25589e-05
3.31371e-05
3.37799e-05
3.44404e-05
3.51163e-05
3.57851e-05
3.64371e-05
3.70688e-05
3.76768e-05
3.82574e-05
3.88091e-05
3.93314e-05
3.98217e-05
4.02821e-05
4.07095e-05
4.11068e-05
4.14735e-05
4.18116e-05
4.21215e-05
4.24037e-05
4.26587e-05
4.28874e-05
4.30907e-05
4.32694e-05
4.34244e-05
4.35569e-05
4.36677e-05
4.3758e-05
4.38287e-05
4.38811e-05
4.39161e-05
4.39348e-05
4.39383e-05
4.39275e-05
4.39036e-05
4.38676e-05
4.38205e-05
4.37633e-05
4.36969e-05
4.36222e-05
4.354e-05
4.34512e-05
4.33565e-05
4.32567e-05
4.31525e-05
4.30446e-05
4.29336e-05
4.28199e-05
4.27041e-05
4.25867e-05
4.24679e-05
4.2348e-05
4.22271e-05
4.21054e-05
4.19828e-05
4.18591e-05
4.17341e-05
4.16073e-05
4.14783e-05
4.13463e-05
4.12107e-05
4.10706e-05
4.09248e-05
4.07725e-05
4.06124e-05
4.04431e-05
4.02635e-05
4.00673e-05
3.9852e-05
3.96225e-05
3.93791e-05
3.91217e-05
3.88503e-05
3.85648e-05
3.82649e-05
3.79509e-05
3.76226e-05
3.72819e-05
3.69274e-05
3.65618e-05
3.6186e-05
3.58019e-05
3.54116e-05
3.50169e-05
3.46193e-05
3.4222e-05
3.38268e-05
3.3437e-05
3.30532e-05
3.26817e-05
3.23323e-05
3.201e-05
3.1737e-05
3.15187e-05
3.13942e-05
3.13977e-05
3.68689e-05
3.70092e-05
3.73884e-05
3.79061e-05
3.85311e-05
3.92254e-05
3.99382e-05
4.06651e-05
4.13817e-05
4.20774e-05
4.27484e-05
4.33914e-05
4.40029e-05
4.45813e-05
4.51263e-05
4.56355e-05
4.61115e-05
4.65511e-05
4.69575e-05
4.73308e-05
4.76729e-05
4.79847e-05
4.82669e-05
4.852e-05
4.87454e-05
4.89439e-05
4.91167e-05
4.92648e-05
4.93897e-05
4.94923e-05
4.95741e-05
4.9636e-05
4.96796e-05
4.9706e-05
4.97164e-05
4.9712e-05
4.96941e-05
4.96638e-05
4.96223e-05
4.9571e-05
4.95107e-05
4.94427e-05
4.93678e-05
4.92872e-05
4.92017e-05
4.91122e-05
4.90197e-05
4.89249e-05
4.88285e-05
4.87313e-05
4.86336e-05
4.85361e-05
4.84392e-05
4.8343e-05
4.82479e-05
4.81539e-05
4.80608e-05
4.79685e-05
4.78766e-05
4.77845e-05
4.76916e-05
4.75971e-05
4.74997e-05
4.73986e-05
4.72922e-05
4.71791e-05
4.70578e-05
4.69265e-05
4.67834e-05
4.66266e-05
4.64444e-05
4.62429e-05
4.60238e-05
4.57868e-05
4.55312e-05
4.52567e-05
4.4963e-05
4.46495e-05
4.43165e-05
4.39636e-05
4.35928e-05
4.32026e-05
4.27961e-05
4.23741e-05
4.1939e-05
4.14932e-05
4.10389e-05
4.0578e-05
4.01142e-05
3.96498e-05
3.91888e-05
3.8732e-05
3.82871e-05
3.78654e-05
3.74737e-05
3.71369e-05
3.68629e-05
3.66956e-05
3.66752e-05
4.2543e-05
4.26728e-05
4.30649e-05
4.36133e-05
4.42752e-05
4.50114e-05
4.57678e-05
4.65374e-05
4.72941e-05
4.80263e-05
4.87303e-05
4.94025e-05
5.00396e-05
5.06403e-05
5.12042e-05
5.17294e-05
5.22185e-05
5.26687e-05
5.30834e-05
5.3463e-05
5.38097e-05
5.41245e-05
5.44083e-05
5.4662e-05
5.48871e-05
5.50845e-05
5.52557e-05
5.54018e-05
5.55245e-05
5.5625e-05
5.57048e-05
5.57651e-05
5.58076e-05
5.58336e-05
5.58444e-05
5.58415e-05
5.58262e-05
5.57999e-05
5.57639e-05
5.57197e-05
5.56683e-05
5.56112e-05
5.55493e-05
5.54838e-05
5.54157e-05
5.53461e-05
5.52758e-05
5.52059e-05
5.51368e-05
5.50695e-05
5.50044e-05
5.49419e-05
5.48824e-05
5.4826e-05
5.47728e-05
5.47226e-05
5.46751e-05
5.46299e-05
5.45861e-05
5.45429e-05
5.44993e-05
5.44538e-05
5.44049e-05
5.43511e-05
5.42903e-05
5.42205e-05
5.41394e-05
5.40448e-05
5.39338e-05
5.38013e-05
5.36385e-05
5.34527e-05
5.32442e-05
5.30116e-05
5.27541e-05
5.24711e-05
5.2162e-05
5.18259e-05
5.14634e-05
5.10737e-05
5.06592e-05
5.02183e-05
4.97545e-05
4.92689e-05
4.87643e-05
4.82435e-05
4.77094e-05
4.71642e-05
4.66126e-05
4.60575e-05
4.55033e-05
4.49518e-05
4.44118e-05
4.38966e-05
4.34147e-05
4.29945e-05
4.2646e-05
4.24187e-05
4.2359e-05
4.862e-05
4.87269e-05
4.91207e-05
4.96899e-05
5.03798e-05
5.11499e-05
5.19428e-05
5.27488e-05
5.35402e-05
5.43044e-05
5.50374e-05
5.57358e-05
5.63964e-05
5.70178e-05
5.76002e-05
5.81414e-05
5.86445e-05
5.91069e-05
5.95323e-05
5.99212e-05
6.02761e-05
6.05984e-05
6.0889e-05
6.11491e-05
6.13801e-05
6.15834e-05
6.17606e-05
6.19128e-05
6.20421e-05
6.21497e-05
6.22372e-05
6.23063e-05
6.23585e-05
6.23953e-05
6.24185e-05
6.24294e-05
6.24296e-05
6.24206e-05
6.2404e-05
6.23813e-05
6.23538e-05
6.23228e-05
6.22896e-05
6.22554e-05
6.22214e-05
6.21886e-05
6.2158e-05
6.21305e-05
6.21067e-05
6.20875e-05
6.20731e-05
6.20638e-05
6.206e-05
6.20615e-05
6.20681e-05
6.20794e-05
6.20947e-05
6.21131e-05
6.21335e-05
6.21544e-05
6.21743e-05
6.21911e-05
6.22027e-05
6.22069e-05
6.2201e-05
6.21822e-05
6.21476e-05
6.20943e-05
6.20198e-05
6.19079e-05
6.17645e-05
6.15919e-05
6.13892e-05
6.11544e-05
6.08865e-05
6.05845e-05
6.02478e-05
5.98753e-05
5.94677e-05
5.90242e-05
5.85477e-05
5.80365e-05
5.74945e-05
5.69233e-05
5.63263e-05
5.57069e-05
5.50687e-05
5.44147e-05
5.37503e-05
5.30793e-05
5.2407e-05
5.1736e-05
5.10766e-05
5.04441e-05
4.98492e-05
4.93236e-05
4.88806e-05
4.85747e-05
4.84591e-05
5.5117e-05
5.51884e-05
5.5573e-05
5.61543e-05
5.68651e-05
5.76631e-05
5.84878e-05
5.93267e-05
6.01501e-05
6.09444e-05
6.17058e-05
6.24305e-05
6.31156e-05
6.37597e-05
6.4363e-05
6.49238e-05
6.54453e-05
6.59249e-05
6.63667e-05
6.67714e-05
6.71418e-05
6.74793e-05
6.77853e-05
6.80608e-05
6.83076e-05
6.85271e-05
6.8721e-05
6.88909e-05
6.90386e-05
6.91657e-05
6.9274e-05
6.93652e-05
6.9441e-05
6.95032e-05
6.95535e-05
6.95935e-05
6.96249e-05
6.96495e-05
6.96689e-05
6.96848e-05
6.96984e-05
6.97114e-05
6.97251e-05
6.97407e-05
6.97594e-05
6.97824e-05
6.98104e-05
6.98446e-05
6.98854e-05
6.99334e-05
6.99889e-05
7.00519e-05
7.01224e-05
7.02e-05
7.02842e-05
7.03741e-05
7.04685e-05
7.05662e-05
7.06651e-05
7.07636e-05
7.0859e-05
7.09489e-05
7.10302e-05
7.11e-05
7.11548e-05
7.1191e-05
7.12048e-05
7.11923e-05
7.11488e-05
7.10574e-05
7.09285e-05
7.07619e-05
7.05556e-05
7.03075e-05
7.0016e-05
6.96801e-05
6.92991e-05
6.88721e-05
6.83996e-05
6.78813e-05
6.73201e-05
6.6715e-05
6.60702e-05
6.53879e-05
6.46721e-05
6.39272e-05
6.31574e-05
6.23668e-05
6.15619e-05
6.07473e-05
5.99294e-05
5.91118e-05
5.83064e-05
5.75309e-05
5.67985e-05
5.61443e-05
5.55853e-05
5.51813e-05
5.49929e-05
6.20597e-05
6.20828e-05
6.24484e-05
6.30346e-05
6.37615e-05
6.45841e-05
6.54386e-05
6.63095e-05
6.71653e-05
6.79914e-05
6.87835e-05
6.9538e-05
7.02519e-05
7.09239e-05
7.15545e-05
7.21418e-05
7.26893e-05
7.31947e-05
7.36622e-05
7.40927e-05
7.44892e-05
7.48533e-05
7.51864e-05
7.54898e-05
7.57655e-05
7.60148e-05
7.62397e-05
7.64417e-05
7.6623e-05
7.67852e-05
7.69303e-05
7.706e-05
7.71763e-05
7.7281e-05
7.7376e-05
7.74631e-05
7.75442e-05
7.7621e-05
7.76954e-05
7.7769e-05
7.78433e-05
7.79201e-05
7.80005e-05
7.80859e-05
7.81775e-05
7.82763e-05
7.83832e-05
7.84991e-05
7.86242e-05
7.8759e-05
7.89034e-05
7.90572e-05
7.92201e-05
7.93912e-05
7.95695e-05
7.97535e-05
7.99416e-05
8.01317e-05
8.03214e-05
8.05079e-05
8.06879e-05
8.08582e-05
8.10149e-05
8.11542e-05
8.12716e-05
8.13629e-05
8.14233e-05
8.14484e-05
8.14262e-05
8.13492e-05
8.12257e-05
8.10535e-05
8.08304e-05
8.05536e-05
8.02216e-05
7.98332e-05
7.93877e-05
7.88843e-05
7.83239e-05
7.77064e-05
7.70352e-05
7.63096e-05
7.55345e-05
7.47127e-05
7.38492e-05
7.29493e-05
7.20181e-05
7.1061e-05
7.00856e-05
6.90976e-05
6.81047e-05
6.71117e-05
6.61321e-05
6.51864e-05
6.42905e-05
6.34834e-05
6.27861e-05
6.22639e-05
6.19856e-05
6.94823e-05
6.94438e-05
6.97827e-05
7.03686e-05
7.11092e-05
7.19557e-05
7.2841e-05
7.37462e-05
7.4638e-05
7.55007e-05
7.63295e-05
7.71206e-05
7.78712e-05
7.85799e-05
7.92472e-05
7.98716e-05
8.04564e-05
8.09996e-05
8.15054e-05
8.1975e-05
8.24116e-05
8.28169e-05
8.31924e-05
8.35395e-05
8.38602e-05
8.41561e-05
8.44291e-05
8.46809e-05
8.49138e-05
8.51296e-05
8.53302e-05
8.55175e-05
8.56937e-05
8.58606e-05
8.60203e-05
8.61748e-05
8.63259e-05
8.64755e-05
8.66256e-05
8.67778e-05
8.69338e-05
8.70952e-05
8.72633e-05
8.74394e-05
8.76245e-05
8.78197e-05
8.80256e-05
8.82429e-05
8.84716e-05
8.87118e-05
8.89632e-05
8.92252e-05
8.94968e-05
8.97767e-05
9.00633e-05
9.03545e-05
9.06479e-05
9.09409e-05
9.12299e-05
9.15115e-05
9.17816e-05
9.2036e-05
9.22698e-05
9.24784e-05
9.26564e-05
9.27987e-05
9.29e-05
9.29558e-05
9.29428e-05
9.28699e-05
9.27388e-05
9.25463e-05
9.22897e-05
9.19662e-05
9.15737e-05
9.11114e-05
9.05787e-05
8.99748e-05
8.93011e-05
8.85579e-05
8.77491e-05
8.68746e-05
8.59399e-05
8.49487e-05
8.39068e-05
8.28207e-05
8.16968e-05
8.05416e-05
7.93643e-05
7.81718e-05
7.69731e-05
7.57745e-05
7.45914e-05
7.34471e-05
7.23609e-05
7.13756e-05
7.0517e-05
6.98562e-05
6.94709e-05
7.74274e-05
7.73142e-05
7.76203e-05
7.82029e-05
7.89573e-05
7.98299e-05
8.07501e-05
8.16951e-05
8.26298e-05
8.3537e-05
8.44117e-05
8.52497e-05
8.60482e-05
8.68058e-05
8.75229e-05
8.81982e-05
8.88349e-05
8.94312e-05
8.99913e-05
9.05166e-05
9.10104e-05
9.14745e-05
9.19107e-05
9.23202e-05
9.27051e-05
9.30671e-05
9.34082e-05
9.37301e-05
9.40352e-05
9.43253e-05
9.46025e-05
9.48687e-05
9.51262e-05
9.5377e-05
9.56232e-05
9.58667e-05
9.61095e-05
9.63538e-05
9.66013e-05
9.68538e-05
9.7113e-05
9.73803e-05
9.76571e-05
9.79445e-05
9.82434e-05
9.85546e-05
9.88786e-05
9.92158e-05
9.95658e-05
9.99285e-05
0.000100303
0.000100688
0.000101082
0.000101483
0.000101889
0.000102298
0.000102705
0.000103107
0.0001035
0.000103881
0.000104242
0.000104581
0.00010489
0.000105164
0.000105397
0.000105582
0.000105714
0.000105786
0.000105774
0.000105692
0.000105538
0.000105308
0.000105
0.000104609
0.000104135
0.000103576
0.000102931
0.000102202
0.000101388
0.000100492
9.95168e-05
9.8464e-05
9.73395e-05
9.6148e-05
9.48962e-05
9.35919e-05
9.22429e-05
9.08573e-05
8.94458e-05
8.80168e-05
8.65807e-05
8.51455e-05
8.37286e-05
8.23566e-05
8.10524e-05
7.98632e-05
7.882e-05
7.79999e-05
7.74906e-05
8.59451e-05
8.57449e-05
8.60134e-05
8.65919e-05
8.73628e-05
8.82666e-05
8.92285e-05
9.02219e-05
9.12094e-05
9.21726e-05
9.31055e-05
9.40038e-05
9.48646e-05
9.56864e-05
9.64696e-05
9.72127e-05
9.79191e-05
9.85867e-05
9.92201e-05
9.98206e-05
0.000100392
0.000100935
0.000101453
0.000101946
0.000102416
0.000102867
0.000103298
0.000103712
0.000104112
0.000104499
0.000104875
0.000105243
0.000105605
0.000105962
0.000106317
0.000106672
0.000107029
0.00010739
0.000107757
0.000108131
0.000108515
0.000108908
0.000109314
0.000109732
0.000110163
0.000110609
0.000111068
0.000111541
0.000112028
0.000112527
0.000113038
0.000113558
0.000114085
0.000114617
0.00011515
0.000115681
0.000116207
0.000116722
0.000117221
0.0001177
0.000118151
0.00011857
0.000118949
0.000119282
0.000119562
0.000119781
0.000119933
0.000120005
0.000119982
0.000119875
0.000119681
0.000119396
0.000119015
0.000118537
0.000117959
0.000117279
0.000116499
0.000115618
0.000114638
0.000113561
0.000112391
0.000111131
0.000109787
0.000108364
0.00010687
0.000105316
0.000103709
0.000102061
0.000100382
9.86845e-05
9.69789e-05
9.52756e-05
9.35943e-05
9.19649e-05
9.04145e-05
8.89951e-05
8.77436e-05
8.67437e-05
8.60938e-05
9.50915e-05
9.47934e-05
9.50207e-05
9.55965e-05
9.6389e-05
9.73315e-05
9.83447e-05
9.9398e-05
0.000100451
0.000101485
0.000102491
0.000103466
0.000104407
0.000105311
0.000106179
0.00010701
0.000107806
0.000108566
0.000109294
0.000109991
0.000110662
0.000111307
0.000111929
0.000112529
0.000113109
0.00011367
0.000114215
0.000114746
0.000115264
0.000115771
0.000116271
0.000116764
0.000117252
0.000117739
0.000118226
0.000118714
0.000119207
0.000119706
0.000120213
0.000120729
0.000121256
0.000121795
0.000122348
0.000122914
0.000123494
0.000124089
0.000124698
0.000125321
0.000125957
0.000126603
0.00012726
0.000127923
0.00012859
0.000129258
0.000129923
0.00013058
0.000131225
0.000131853
0.000132456
0.00013303
0.000133567
0.00013406
0.000134501
0.000134884
0.000135201
0.000135443
0.000135606
0.000135659
0.000135611
0.000135464
0.000135213
0.000134854
0.000134383
0.000133796
0.000133092
0.00013227
0.00013133
0.000130272
0.0001291
0.000127815
0.000126424
0.000124927
0.000123333
0.000121649
0.000119883
0.000118047
0.000116151
0.000114207
0.000112229
0.00011023
0.000108223
0.00010622
0.000104244
0.000102327
0.000100502
9.88261e-05
9.73426e-05
9.61423e-05
9.53357e-05
0.000104927
0.000104521
0.000104706
0.000105282
0.000106103
0.000107095
0.000108171
0.000109298
0.000110433
0.000111553
0.000112651
0.000113721
0.000114761
0.000115768
0.000116743
0.000117683
0.000118591
0.000119467
0.000120312
0.00012113
0.000121924
0.000122695
0.000123445
0.000124176
0.00012489
0.000125587
0.00012627
0.00012694
0.000127601
0.000128252
0.000128897
0.000129538
0.000130176
0.000130814
0.000131454
0.000132097
0.000132746
0.000133403
0.000134068
0.000134745
0.000135433
0.000136134
0.000136848
0.000137577
0.00013832
0.000139076
0.000139847
0.000140629
0.000141422
0.000142224
0.000143032
0.000143844
0.000144655
0.000145461
0.000146259
0.000147042
0.000147805
0.000148542
0.000149246
0.000149909
0.000150525
0.000151084
0.00015158
0.000152003
0.000152345
0.000152598
0.000152754
0.00015278
0.000152694
0.000152491
0.000152167
0.000151717
0.000151137
0.000150422
0.000149572
0.000148586
0.000147464
0.000146207
0.000144819
0.000143301
0.000141662
0.000139902
0.000138031
0.000136056
0.000133988
0.00013184
0.000129623
0.000127352
0.000125044
0.000122712
0.000120372
0.000118038
0.000115735
0.000113501
0.000111373
0.000109415
0.000107675
0.000106255
0.000105276
0.000115515
0.000114992
0.000115134
0.000115716
0.000116575
0.000117627
0.000118781
0.000119998
0.000121231
0.000122457
0.000123666
0.000124853
0.000126014
0.000127146
0.00012825
0.000129322
0.000130367
0.000131381
0.000132369
0.000133332
0.000134273
0.000135194
0.000136097
0.000136984
0.000137855
0.000138712
0.000139556
0.00014039
0.000141215
0.000142034
0.000142847
0.000143657
0.000144466
0.000145275
0.000146087
0.000146904
0.000147727
0.000148558
0.000149398
0.00015025
0.000151113
0.000151989
0.000152878
0.00015378
0.000154696
0.000155623
0.000156562
0.000157511
0.000158467
0.000159428
0.000160392
0.000161353
0.000162309
0.000163253
0.000164182
0.000165088
0.000165966
0.000166807
0.000167606
0.000168352
0.000169039
0.000169657
0.000170197
0.000170651
0.000171008
0.000171259
0.000171395
0.000171385
0.000171247
0.000170976