/*--------------------------------*- C++ -*----------------------------------*\
| =========                 |                                                 |
| \\      /  F ield         | OpenFOAM: The Open Source CFD Toolbox           |
|  \\    /   O peration     | Version:  2112                                  |
|   \\  /    A nd           | Website:  www.openfoam.com                      |
|    \\/     M anipulation  |                                                 |
\*---------------------------------------------------------------------------*/
FoamFile
{
    version     2.0;
    format      ascii;
    arch        "LSB;label=32;scalar=64";
    class       volScalarField;
    location    "2858";
    object      omega;
}
// * * * * * * * * * * * * * * * * * * * * * * * * * * * * * * * * * * * * * //

dimensions      [0 0 -1 0 0 0 0];

internalField   nonuniform List<scalar> 
14751
(
100.012
100.015
100.005
99.9978
99.992
99.9873
99.982
99.9791
99.979
99.979
99.9791
99.9869
100.003
100.017
100.027
100.035
100.04
100.044
100.049
100.048
100.042
100.036
100.03
100.018
99.9983
99.9816
99.9689
99.9615
99.9592
99.9569
99.9547
99.9525
99.9504
99.9484
99.9463
99.9484
99.9549
99.9616
99.9684
99.9816
100.003
100.021
100.036
100.044
100.047
100.049
100.051
100.053
100.055
100.057
100.06
100.06
100.058
100.055
100.053
100.051
100.049
100.047
100.045
100.036
100.022
100.003
99.9825
99.9695
99.9627
99.9561
99.9498
99.9468
99.9474
99.9479
99.9485
99.949
99.9496
99.9501
99.9507
99.9514
99.9521
99.9528
99.9534
99.9541
99.9548
99.9554
99.9561
99.9584
99.9625
99.9667
99.971
99.978
99.9878
100.001
100.015
100.022
100.021
100.02
100.019
100.017
100.015
100.011
100.006
16.9706
16.9671
16.9448
16.9119
16.8692
16.8221
16.7726
16.7213
16.6697
16.618
16.5663
16.516
16.4676
16.4198
16.3729
16.327
16.2822
16.2391
16.1977
16.1575
16.1184
16.0811
16.0457
16.0114
15.9783
15.9473
15.9186
15.8924
15.8686
15.8465
15.826
15.8071
15.7897
15.7737
15.7592
15.7464
15.7355
15.7257
15.7171
15.7104
15.7056
15.7015
15.6978
15.6943
15.6909
15.6883
15.6866
15.6859
15.6859
15.6867
15.6883
15.6904
15.6931
15.6966
15.7009
15.706
15.712
15.7189
15.7266
15.7347
15.7429
15.7517
15.7613
15.773
15.7866
15.8015
15.8177
15.8356
15.8555
15.8767
15.8995
15.9239
15.9499
15.9775
16.0067
16.0377
16.0704
16.1049
16.1411
16.179
16.2186
16.2599
16.3028
16.3473
16.3934
16.4407
16.489
16.5385
16.5889
16.64
16.6912
16.741
16.7886
16.8341
16.8764
16.9135
16.9435
16.9635
16.9722
5.88136
5.87601
5.85599
5.828
5.79273
5.75407
5.71327
5.67084
5.62794
5.58488
5.54199
5.49974
5.45847
5.41807
5.37871
5.34055
5.30366
5.26832
5.23448
5.20209
5.17113
5.14178
5.11407
5.08785
5.06309
5.03999
5.01854
4.99874
4.98055
4.96377
4.94836
4.93425
4.92139
4.90973
4.89923
4.88992
4.88179
4.87466
4.86848
4.86336
4.85929
4.85599
4.8534
4.85132
4.84992
4.84946
4.84974
4.85073
4.85241
4.85478
4.85782
4.8615
4.86579
4.87077
4.87643
4.88279
4.88987
4.89766
4.90618
4.91533
4.92506
4.93553
4.94675
4.95896
4.97222
4.9864
5.00151
5.01765
5.0349
5.05317
5.07249
5.0929
5.1144
5.13704
5.16083
5.18578
5.2119
5.23923
5.26773
5.29746
5.3283
5.36037
5.39344
5.42758
5.46267
5.49853
5.53504
5.57212
5.60954
5.64707
5.68427
5.72083
5.75598
5.78913
5.81989
5.84612
5.8673
5.88134
5.88679
3.05548
3.04821
3.03008
3.00696
2.9781
2.94665
2.91442
2.8813
2.84793
2.81445
2.78129
2.74867
2.71689
2.686
2.65612
2.62739
2.59983
2.5736
2.54866
2.52502
2.50265
2.4816
2.46188
2.44344
2.42625
2.41033
2.39566
2.38221
2.36994
2.35877
2.34865
2.33954
2.33141
2.3242
2.31788
2.31244
2.30784
2.30403
2.30096
2.29863
2.29702
2.296
2.29563
2.29603
2.29701
2.29862
2.30081
2.30356
2.30687
2.31071
2.31508
2.31998
2.32537
2.33128
2.33772
2.34466
2.35212
2.36009
2.36858
2.37758
2.38702
2.39698
2.40746
2.41851
2.43016
2.44238
2.45517
2.46855
2.48257
2.49721
2.51246
2.52836
2.5449
2.5621
2.57998
2.59852
2.61775
2.63766
2.65824
2.67952
2.70144
2.72406
2.74713
2.77076
2.79485
2.81929
2.84396
2.86879
2.89358
2.91818
2.94245
2.96611
2.98862
3.00952
3.02838
3.04399
3.05602
3.06287
3.06352
1.96597
1.95768
1.94094
1.92064
1.89587
1.86925
1.84219
1.8146
1.78733
1.76067
1.73454
1.70897
1.68428
1.6605
1.63774
1.61609
1.59553
1.57617
1.55794
1.54086
1.52487
1.50999
1.49619
1.48345
1.47173
1.461
1.45124
1.44241
1.43448
1.42739
1.4211
1.41559
1.41081
1.40673
1.40333
1.40057
1.39843
1.39688
1.39588
1.3954
1.39551
1.39622
1.39743
1.39916
1.40131
1.40392
1.40695
1.4104
1.41426
1.41851
1.42315
1.42817
1.43355
1.43929
1.4454
1.45186
1.45868
1.46583
1.47333
1.48118
1.48933
1.49782
1.50664
1.51581
1.52536
1.53526
1.54552
1.55615
1.56718
1.57859
1.59041
1.60263
1.61526
1.62833
1.64181
1.65573
1.67005
1.68483
1.69995
1.71554
1.73151
1.74798
1.76491
1.78215
1.7996
1.81718
1.83479
1.85234
1.86969
1.88672
1.90325
1.91915
1.93404
1.94755
1.9594
1.96872
1.9753
1.97775
1.97524
1.39213
1.38375
1.36855
1.35058
1.32914
1.30637
1.28351
1.26047
1.23796
1.21615
1.19514
1.17516
1.1561
1.13792
1.1207
1.1045
1.08927
1.07511
1.06192
1.04972
1.03844
1.02807
1.01857
1.00994
1.0021
0.995054
0.988749
0.983158
0.978247
0.973977
0.970315
0.967234
0.964701
0.962688
0.961176
0.960144
0.95955
0.959402
0.959722
0.960496
0.961685
0.963272
0.965219
0.967515
0.970125
0.973051
0.976281
0.979801
0.983606
0.987684
0.992029
0.996631
1.00148
1.00656
1.01189
1.01744
1.02322
1.02922
1.03543
1.04187
1.04849
1.05532
1.06236
1.06961
1.0771
1.0848
1.09274
1.10091
1.10934
1.11802
1.12697
1.13619
1.14569
1.15547
1.16553
1.17587
1.18644
1.19738
1.20875
1.22048
1.23249
1.24482
1.25739
1.27014
1.28299
1.29588
1.30872
1.32144
1.33393
1.34608
1.35776
1.36888
1.37916
1.38831
1.39611
1.40184
1.40536
1.40544
1.40139
1.03414
1.02634
1.01306
0.997588
0.97945
0.960379
0.941472
0.922644
0.904454
0.887036
0.870479
0.854844
0.84017
0.826495
0.813755
0.801899
0.790856
0.780704
0.771367
0.76283
0.755042
0.747983
0.741623
0.735933
0.730872
0.726414
0.722526
0.719179
0.716344
0.713989
0.712091
0.710627
0.709572
0.708892
0.708582
0.708644
0.709094
0.709884
0.710998
0.712418
0.714128
0.716108
0.718341
0.720814
0.723508
0.726417
0.729534
0.732846
0.736348
0.740028
0.74388
0.747896
0.752064
0.75638
0.760839
0.765433
0.770159
0.775008
0.779981
0.785077
0.790274
0.795591
0.801027
0.806582
0.812269
0.818086
0.824039
0.830135
0.83639
0.842806
0.84939
0.85615
0.863085
0.870199
0.877479
0.884977
0.892827
0.900938
0.909305
0.917911
0.926701
0.935706
0.944848
0.954101
0.963406
0.972706
0.981942
0.991064
0.999973
1.0086
1.01684
1.02463
1.03177
1.038
1.04317
1.04666
1.04837
1.04727
1.04284
0.792701
0.785926
0.774747
0.761835
0.746914
0.731356
0.716096
0.701058
0.686684
0.673071
0.660274
0.648308
0.63721
0.626963
0.617525
0.608896
0.601043
0.593904
0.587422
0.581563
0.576294
0.571598
0.567445
0.56381
0.560659
0.557968
0.555711
0.553863
0.552401
0.551293
0.550524
0.550082
0.549954
0.550142
0.55062
0.55137
0.552385
0.55364
0.555121
0.556813
0.558705
0.560781
0.563032
0.565445
0.568007
0.570711
0.573549
0.576512
0.579592
0.58278
0.586069
0.589451
0.592917
0.596461
0.600079
0.603762
0.607509
0.611312
0.61517
0.619082
0.623037
0.627044
0.631105
0.635221
0.6394
0.643644
0.647959
0.652353
0.656838
0.661417
0.666096
0.670881
0.675772
0.680765
0.685958
0.691383
0.697008
0.702808
0.708774
0.714905
0.721161
0.727566
0.734062
0.740636
0.747241
0.753838
0.760383
0.766843
0.773142
0.779235
0.785033
0.790508
0.795495
0.799781
0.803248
0.805385
0.806113
0.804606
0.800423
0.62277
0.6172
0.608086
0.597595
0.585597
0.573163
0.561072
0.549262
0.538075
0.527586
0.51782
0.508775
0.500471
0.492879
0.485963
0.479718
0.474083
0.469046
0.464548
0.460578
0.457079
0.454024
0.451388
0.449147
0.447277
0.445758
0.444567
0.443688
0.443104
0.442804
0.442771
0.442985
0.443435
0.44411
0.444994
0.446072
0.447337
0.44877
0.45036
0.452094
0.453965
0.455959
0.458068
0.460283
0.462591
0.464987
0.467463
0.470009
0.472618
0.475283
0.477995
0.480749
0.483534
0.486348
0.489185
0.492037
0.494903
0.497778
0.50066
0.503548
0.506438
0.509334
0.512239
0.515155
0.518089
0.521046
0.52403
0.527051
0.530116
0.533234
0.536408
0.539643
0.542938
0.546375
0.54999
0.553745
0.557629
0.561638
0.565766
0.570019
0.574366
0.578833
0.583375
0.587986
0.592632
0.597287
0.601919
0.606507
0.610995
0.61535
0.619506
0.623445
0.627038
0.630108
0.632564
0.633983
0.634313
0.632874
0.629286
0.499649
0.495275
0.488033
0.479682
0.470193
0.460397
0.450932
0.441749
0.433119
0.425095
0.417688
0.410887
0.404701
0.3991
0.394052
0.389548
0.385531
0.382
0.3789
0.376217
0.373907
0.371948
0.370319
0.369003
0.367975
0.367221
0.366723
0.366465
0.366434
0.366617
0.366998
0.367565
0.368306
0.369209
0.370262
0.371454
0.372775
0.374212
0.375756
0.377397
0.379126
0.380933
0.382811
0.384751
0.386743
0.388781
0.390857
0.392962
0.395091
0.397235
0.399387
0.401543
0.403693
0.405835
0.407963
0.410073
0.412162
0.414226
0.416266
0.418281
0.420269
0.422235
0.424181
0.426112
0.428034
0.429951
0.431872
0.433803
0.435754
0.437733
0.439744
0.441796
0.443919
0.446195
0.448581
0.451065
0.453646
0.456329
0.459112
0.462003
0.464981
0.46807
0.471236
0.474478
0.477774
0.481103
0.484444
0.487786
0.491082
0.494313
0.497425
0.500409
0.50316
0.505534
0.507457
0.508583
0.508873
0.507763
0.504915
0.408394
0.405096
0.39946
0.392907
0.385487
0.377837
0.370476
0.363371
0.356736
0.350612
0.345
0.339889
0.33528
0.331147
0.327462
0.324214
0.321355
0.318888
0.316764
0.31497
0.313472
0.312251
0.31129
0.310575
0.310086
0.30981
0.309732
0.30984
0.31012
0.310561
0.31115
0.311877
0.31273
0.3137
0.314776
0.315948
0.317208
0.318546
0.319952
0.321418
0.322937
0.3245
0.326099
0.327727
0.329375
0.331037
0.332706
0.334373
0.336034
0.337681
0.339309
0.340912
0.342483
0.344021
0.345521
0.346979
0.348394
0.349764
0.351091
0.352373
0.353614
0.354815
0.355983
0.357121
0.358236
0.359336
0.360427
0.361518
0.362619
0.363737
0.36488
0.366058
0.367362
0.368761
0.370244
0.37181
0.373465
0.375215
0.377062
0.379015
0.38106
0.383217
0.385463
0.3878
0.39021
0.39268
0.395196
0.397748
0.400304
0.402845
0.405332
0.407758
0.410039
0.412055
0.413746
0.414828
0.415265
0.414586
0.412491
0.33942
0.337028
0.332714
0.327626
0.321865
0.315919
0.310209
0.304716
0.299612
0.29493
0.290669
0.286816
0.28337
0.280309
0.277608
0.275259
0.273223
0.2715
0.270051
0.268864
0.267911
0.267178
0.26665
0.266315
0.266157
0.266165
0.266325
0.266628
0.267062
0.267615
0.268278
0.269042
0.269895
0.270831
0.271838
0.27291
0.274039
0.275215
0.27643
0.277678
0.278951
0.280241
0.281541
0.282845
0.284145
0.285435
0.286709
0.287959
0.289181
0.290369
0.291518
0.292624
0.293682
0.29469
0.295645
0.296546
0.297392
0.298182
0.29892
0.299605
0.300242
0.300835
0.30139
0.301912
0.302409
0.302888
0.303358
0.303828
0.304308
0.304807
0.305331
0.305934
0.30664
0.307422
0.308284
0.309228
0.310262
0.311394
0.312627
0.313971
0.315415
0.316978
0.318643
0.320411
0.322271
0.324213
0.326226
0.328304
0.330419
0.33256
0.334692
0.336812
0.33885
0.340708
0.342333
0.343492
0.344148
0.343907
0.342498
0.286344
0.284683
0.281429
0.277506
0.27305
0.268434
0.264001
0.259746
0.255806
0.25221
0.248956
0.246034
0.24344
0.241157
0.239164
0.237454
0.235996
0.234788
0.2338
0.233019
0.232425
0.232005
0.231747
0.23164
0.231671
0.23183
0.232106
0.232491
0.232973
0.233543
0.234193
0.234914
0.235698
0.236536
0.237421
0.238345
0.239301
0.240282
0.24128
0.242289
0.243302
0.244312
0.245313
0.246299
0.247263
0.248201
0.249105
0.249972
0.250796
0.251573
0.2523
0.252973
0.253589
0.254147
0.254646
0.255086
0.255467
0.25579
0.256059
0.256276
0.256447
0.256576
0.256671
0.256737
0.256783
0.256818
0.25685
0.256889
0.256945
0.257029
0.257152
0.257382
0.25769
0.258075
0.258541
0.259095
0.259744
0.260496
0.261355
0.262329
0.263412
0.264619
0.265937
0.267368
0.268904
0.270535
0.272256
0.274059
0.275923
0.277839
0.279778
0.281737
0.283659
0.285461
0.287097
0.288375
0.289254
0.289402
0.288576
0.244806
0.243715
0.241294
0.238283
0.234841
0.231253
0.2278
0.224486
0.221426
0.218644
0.216138
0.213901
0.211928
0.210205
0.208718
0.207458
0.2064
0.205544
0.204862
0.204347
0.20398
0.20375
0.203647
0.203662
0.203784
0.204005
0.204315
0.204705
0.205167
0.205693
0.206275
0.206905
0.207575
0.208279
0.20901
0.209761
0.210526
0.211298
0.212071
0.212838
0.213594
0.214332
0.215048
0.215735
0.21639
0.217006
0.21758
0.218106
0.218583
0.219006
0.219374
0.219684
0.219934
0.220126
0.220258
0.220333
0.220351
0.220316
0.220232
0.220103
0.219934
0.219731
0.219503
0.219256
0.218998
0.218739
0.218488
0.218254
0.218048
0.217878
0.217783
0.217783
0.217857
0.218011
0.218252
0.218586
0.219019
0.219559
0.22021
0.220978
0.22186
0.222867
0.223991
0.225232
0.226584
0.22804
0.229594
0.231241
0.232963
0.234751
0.236584
0.238457
0.240324
0.242113
0.243785
0.245177
0.246247
0.246714
0.24636
0.211768
0.211111
0.209334
0.207031
0.204368
0.201569
0.198862
0.196263
0.193864
0.191689
0.189736
0.188
0.186477
0.185156
0.184025
0.183077
0.182291
0.181668
0.181184
0.180833
0.180599
0.180473
0.180446
0.180511
0.180658
0.18088
0.181168
0.181516
0.181914
0.182357
0.182837
0.183347
0.183882
0.184434
0.184998
0.185568
0.186138
0.186702
0.187254
0.18779
0.188304
0.188791
0.189246
0.189666
0.190045
0.190381
0.19067
0.190908
0.191094
0.191225
0.191301
0.191321
0.191284
0.191192
0.191046
0.190848
0.190602
0.19031
0.189979
0.189612
0.189216
0.188797
0.188364
0.187924
0.187485
0.187056
0.186647
0.186266
0.185923
0.185628
0.185432
0.185315
0.185274
0.185318
0.185451
0.18568
0.18601
0.186448
0.186997
0.187663
0.188442
0.189346
0.190365
0.191502
0.192751
0.194107
0.195563
0.197117
0.198754
0.200464
0.202232
0.204051
0.205884
0.20767
0.209372
0.210853
0.212069
0.212781
0.212792
0.185084
0.18475
0.183466
0.181705
0.179638
0.17744
0.1753
0.173239
0.171336
0.169611
0.168065
0.166693
0.165492
0.164455
0.163571
0.162835
0.162229
0.161753
0.161389
0.16113
0.160964
0.160882
0.160877
0.160942
0.16107
0.161254
0.161486
0.161761
0.16207
0.162409
0.16277
0.163149
0.16354
0.163936
0.164333
0.164725
0.165108
0.165476
0.165825
0.166149
0.166446
0.166711
0.16694
0.167129
0.167277
0.167379
0.167433
0.167438
0.167393
0.167297
0.167149
0.166951
0.166702
0.166406
0.166064
0.16568
0.165256
0.164798
0.164311
0.163801
0.163273
0.162734
0.162193
0.161655
0.161131
0.160627
0.160153
0.159716
0.159328
0.159005
0.158777
0.158623
0.158548
0.158557
0.158658
0.158853
0.159148
0.159549
0.160058
0.16068
0.161412
0.162263
0.163227
0.164305
0.165493
0.166785
0.168178
0.169668
0.171243
0.172896
0.174612
0.176386
0.178186
0.179961
0.181676
0.183214
0.18453
0.185419
0.185702
0.163212
0.163116
0.162204
0.160857
0.159242
0.1575
0.155789
0.154132
0.152598
0.151206
0.149956
0.148846
0.147874
0.147035
0.146318
0.14572
0.145227
0.144838
0.144538
0.144322
0.144178
0.1441
0.144081
0.144115
0.144197
0.144319
0.144475
0.144661
0.14487
0.145097
0.145336
0.145582
0.145831
0.146077
0.146317
0.146545
0.146758
0.146951
0.147121
0.147263
0.147374
0.147452
0.147493
0.147494
0.147455
0.147373
0.147246
0.147074
0.146857
0.146595
0.146289
0.145939
0.145548
0.145119
0.144654
0.144156
0.143631
0.143083
0.142516
0.141937
0.141352
0.140767
0.14019
0.139627
0.139086
0.138574
0.1381
0.137669
0.13729
0.137
0.136785
0.136645
0.136581
0.136602
0.13671
0.13691
0.137207
0.137604
0.138103
0.13871
0.139421
0.140245
0.141175
0.142214
0.143357
0.144602
0.145944
0.147381
0.148901
0.1505
0.152164
0.15389
0.15565
0.157399
0.159105
0.160668
0.162041
0.16305
0.163528
0.14504
0.145113
0.14448
0.143446
0.142172
0.140773
0.139384
0.13803
0.136769
0.135621
0.134585
0.133662
0.13285
0.132144
0.131537
0.131025
0.130598
0.130254
0.12998
0.129773
0.129622
0.129522
0.129467
0.129453
0.129472
0.129522
0.129595
0.129688
0.129795
0.129911
0.130032
0.130154
0.130273
0.130384
0.130483
0.130568
0.130634
0.130679
0.130698
0.13069
0.130651
0.130579
0.130473
0.130331
0.130151
0.129933
0.129676
0.12938
0.129046
0.128674
0.128266
0.127825
0.127351
0.126848
0.12632
0.12577
0.125203
0.124623
0.124034
0.123443
0.122856
0.122278
0.121715
0.121174
0.120662
0.120185
0.119751
0.119365
0.119037
0.118794
0.11862
0.118518
0.118489
0.118541
0.118676
0.118899
0.119211
0.119617
0.120119
0.120721
0.121421
0.122224
0.123128
0.124133
0.125237
0.126437
0.127729
0.129112
0.130577
0.132118
0.133726
0.135395
0.137103
0.138811
0.140487
0.142047
0.143442
0.144522
0.145134
0.129749
0.129941
0.129512
0.128712
0.127694
0.126553
0.125405
0.124276
0.123217
0.122246
0.121364
0.120572
0.119869
0.119251
0.118712
0.118251
0.117856
0.117529
0.117257
0.117038
0.116863
0.116726
0.116624
0.116553
0.116506
0.116481
0.116472
0.116475
0.116486
0.116501
0.116516
0.116528
0.116533
0.116528
0.11651
0.116475
0.116422
0.116347
0.116248
0.116122
0.115969
0.115787
0.115573
0.115328
0.115051
0.114742
0.114401
0.114027
0.113624
0.11319
0.11273
0.112244
0.111736
0.111207
0.110663
0.110105
0.10954
0.108969
0.1084
0.107835
0.107281
0.106743
0.106226
0.105736
0.105279
0.104859
0.104485
0.10416
0.103899
0.103713
0.10359
0.103534
0.103548
0.103637
0.103804
0.104051
0.104382
0.104799
0.105305
0.105902
0.106589
0.107372
0.108247
0.109217
0.11028
0.111432
0.112672
0.113998
0.115402
0.116879
0.118423
0.120027
0.121672
0.123324
0.124954
0.126486
0.127876
0.128989
0.129685
0.116736
0.117008
0.116726
0.1161
0.115271
0.114323
0.113354
0.112392
0.111482
0.110639
0.109866
0.109165
0.108534
0.107972
0.107474
0.107038
0.106656
0.106327
0.106044
0.105801
0.105592
0.105414
0.105262
0.105133
0.105023
0.104927
0.104842
0.104765
0.104692
0.10462
0.104545
0.104465
0.104377
0.104279
0.104167
0.104039
0.103894
0.103729
0.103542
0.103333
0.1031
0.102841
0.102557
0.102247
0.10191
0.101548
0.101161
0.100749
0.100314
0.0998575
0.0993815
0.0988884
0.0983804
0.0978608
0.0973324
0.0967988
0.0962637
0.0957309
0.0952048
0.0946893
0.0941894
0.0937093
0.0932541
0.0928282
0.0924367
0.0920844
0.0917759
0.0915155
0.0913244
0.0911936
0.0911215
0.0911114
0.0911663
0.0912898
0.0914846
0.0917532
0.0920979
0.0925216
0.0930259
0.0936135
0.0942841
0.0950419
0.0958855
0.0968161
0.0978324
0.098933
0.100116
0.101379
0.102716
0.104125
0.105597
0.107128
0.1087
0.110285
0.111854
0.113342
0.114703
0.11582
0.116563
0.105548
0.105871
0.105693
0.105194
0.104505
0.1037
0.102865
0.102026
0.101224
0.100473
0.0997779
0.0991389
0.0985565
0.0980291
0.0975532
0.0971274
0.0967452
0.0964061
0.0961031
0.0958327
0.0955898
0.0953704
0.0951715
0.09499
0.0948223
0.0946655
0.0945165
0.0943724
0.0942301
0.0940872
0.093941
0.0937893
0.0936297
0.0934601
0.0932786
0.0930835
0.0928731
0.092646
0.0924009
0.0921369
0.0918533
0.0915494
0.0912252
0.0908806
0.0905159
0.0901317
0.0897287
0.0893079
0.0888709
0.0884192
0.0879547
0.0874797
0.0869965
0.0865078
0.0860164
0.0855254
0.0850381
0.0845577
0.0840881
0.0836328
0.0831957
0.0827808
0.082392
0.0820334
0.081709
0.0814231
0.0811799
0.0809835
0.0808503
0.0807696
0.0807425
0.0807721
0.080861
0.0810123
0.0812283
0.0815112
0.0818631
0.0822868
0.0827835
0.0833558
0.084004
0.0847315
0.0855379
0.0864243
0.0873902
0.0884345
0.0895557
0.0907519
0.0920185
0.0933522
0.0947472
0.096199
0.0976927
0.0992017
0.100699
0.102128
0.103444
0.104543
0.105304
0.0958445
0.0961955
0.0960878
0.0956811
0.0950951
0.0943968
0.0936608
0.0929138
0.0921911
0.0915076
0.090867
0.0902711
0.0897205
0.0892143
0.0887499
0.0883262
0.0879381
0.0875853
0.0872619
0.0869652
0.0866905
0.086435
0.0861957
0.0859703
0.0857558
0.0855498
0.0853498
0.0851535
0.0849582
0.0847621
0.084563
0.0843592
0.0841487
0.08393
0.0837016
0.0834621
0.0832104
0.0829454
0.0826664
0.0823725
0.0820636
0.0817392
0.0813995
0.0810447
0.0806753
0.0802919
0.0798955
0.0794869
0.0790677
0.0786394
0.0782038
0.0777629
0.0773188
0.0768738
0.0764305
0.0759915
0.0755595
0.0751376
0.0747287
0.074336
0.0739628
0.0736123
0.073288
0.0729931
0.0727312
0.0725057
0.0723204
0.0721812
0.0720957
0.0720569
0.0720667
0.0721278
0.0722424
0.0724133
0.0726426
0.0729323
0.0732843
0.0737011
0.074184
0.0747353
0.0753556
0.0760482
0.076813
0.0776514
0.0785632
0.0795478
0.080604
0.0817302
0.0829227
0.0841785
0.0854928
0.0868613
0.0882709
0.089698
0.0911173
0.0924778
0.0937364
0.0948004
0.0955587
0.0873656
0.0877271
0.087666
0.0873254
0.0868148
0.0861958
0.0855341
0.0848559
0.0841927
0.0835587
0.082958
0.082393
0.0818643
0.0813718
0.0809136
0.080489
0.080094
0.0797284
0.0793874
0.0790686
0.0787684
0.0784841
0.0782135
0.0779546
0.0777049
0.0774627
0.0772256
0.076992
0.0767596
0.0765271
0.0762926
0.0760548
0.0758122
0.0755635
0.0753076
0.0750436
0.0747705
0.0744875
0.0741942
0.0738901
0.0735751
0.0732489
0.072912
0.0725644
0.072207
0.0718401
0.0714648
0.071082
0.070693
0.0702992
0.0699022
0.0695037
0.0691055
0.0687097
0.0683185
0.067934
0.0675586
0.0671948
0.0668452
0.0665124
0.0661991
0.0659081
0.0656423
0.0654043
0.0651971
0.0650234
0.0648856
0.0647952
0.0647478
0.0647422
0.0647802
0.0648643
0.0649966
0.0651794
0.0654146
0.0657041
0.0660498
0.0664537
0.0669175
0.067443
0.0680314
0.0686853
0.0694054
0.070193
0.0710483
0.0719711
0.0729604
0.074015
0.0751316
0.0763077
0.0775393
0.0788223
0.0801453
0.0814868
0.082823
0.0841085
0.0853017
0.0863195
0.0870588
0.079911
0.0802703
0.0802379
0.0799439
0.0794889
0.0789298
0.0783248
0.0776994
0.077082
0.076486
0.075916
0.0753746
0.0748628
0.0743808
0.0739274
0.0735023
0.0731024
0.0727275
0.0723739
0.0720395
0.0717213
0.0714171
0.071125
0.0708434
0.0705703
0.0703043
0.0700434
0.0697864
0.0695315
0.0692774
0.0690228
0.0687667
0.0685076
0.0682449
0.0679774
0.0677046
0.0674256
0.06714
0.0668473
0.0665473
0.0662399
0.0659252
0.0656033
0.0652746
0.0649396
0.064599
0.0642534
0.0639038
0.0635514
0.0631973
0.0628428
0.0624895
0.0621389
0.0617928
0.0614529
0.0611211
0.0607994
0.0604899
0.0601948
0.0599161
0.0596563
0.0594177
0.0592026
0.0590133
0.0588524
0.0587221
0.0586248
0.0585702
0.0585522
0.0585714
0.0586297
0.0587292
0.0588719
0.0590598
0.0592946
0.0595783
0.0599124
0.060299
0.0607396
0.0612359
0.0617893
0.0624023
0.0630758
0.0638112
0.064609
0.0654691
0.0663911
0.0673736
0.068414
0.0695102
0.0706587
0.0718557
0.0730911
0.0743455
0.0755965
0.0768031
0.0779258
0.0788896
0.0795987
0.0733246
0.0736722
0.0736558
0.0733948
0.0729813
0.0724684
0.071908
0.0713246
0.0707439
0.070179
0.0696344
0.069113
0.0686162
0.0681444
0.067697
0.067274
0.0668729
0.0664939
0.0661337
0.0657908
0.0654626
0.0651474
0.0648434
0.0645494
0.0642637
0.0639851
0.0637123
0.063444
0.0631788
0.0629156
0.0626535
0.0623915
0.0621286
0.061864
0.0615971
0.0613272
0.0610538
0.0607764
0.0604947
0.0602086
0.059918
0.059623
0.0593237
0.0590206
0.058714
0.0584044
0.0580926
0.0577793
0.0574654
0.0571521
0.0568403
0.0565314
0.0562266
0.0559274
0.0556354
0.055352
0.0550789
0.054818
0.0545709
0.0543395
0.0541259
0.0539318
0.0537593
0.0536105
0.0534875
0.0533923
0.0533271
0.0532989
0.0533027
0.0533395
0.0534113
0.0535199
0.053667
0.0538546
0.0540842
0.0543576
0.0546763
0.0550423
0.0554569
0.0559219
0.0564387
0.0570096
0.0576358
0.0583187
0.0590591
0.059857
0.0607122
0.0616235
0.0625887
0.063606
0.0646724
0.0657843
0.0669327
0.0681001
0.0692655
0.0703917
0.0714411
0.0723461
0.0730178
0.0674828
0.0678122
0.0678031
0.0675656
0.0671841
0.0667079
0.066184
0.0656355
0.0650863
0.0645483
0.0640267
0.0635243
0.0630426
0.0625825
0.0621436
0.0617262
0.0613287
0.0609509
0.0605906
0.0602462
0.0599156
0.0595974
0.0592901
0.0589926
0.0587036
0.0584222
0.058147
0.0578772
0.0576115
0.0573492
0.0570892
0.0568309
0.0565733
0.056316
0.0560581
0.0557994
0.0555391
0.0552771
0.0550131
0.0547468
0.0544783
0.0542076
0.0539349
0.0536604
0.0533845
0.0531076
0.0528303
0.0525533
0.0522772
0.052003
0.0517316
0.0514641
0.0512014
0.0509449
0.0506958
0.0504553
0.050225
0.0500062
0.0498004
0.0496093
0.0494344
0.0492774
0.04914
0.0490239
0.048931
0.0488632
0.048823
0.048814
0.0488332
0.0488818
0.0489615
0.0490741
0.049221
0.0494041
0.0496248
0.0498848
0.0501855
0.0505287
0.0509158
0.0513484
0.051828
0.0523568
0.0529361
0.0535672
0.0542512
0.0549883
0.0557783
0.0566202
0.0575122
0.0584527
0.059439
0.0604678
0.0615312
0.0626132
0.063694
0.06474
0.0657155
0.0665594
0.067189
0.0622867
0.0625935
0.0625862
0.0623658
0.0620097
0.0615643
0.0610715
0.0605538
0.0600327
0.05952
0.0590205
0.0585373
0.0580722
0.057626
0.0571988
0.0567911
0.0564017
0.0560305
0.0556757
0.0553361
0.0550098
0.0546955
0.0543921
0.0540986
0.0538138
0.053537
0.0532671
0.0530033
0.0527445
0.0524901
0.0522393
0.0519913
0.0517456
0.0515014
0.0512583
0.0510158
0.0507735
0.0505311
0.0502883
0.0500449
0.049801
0.0495565
0.0493115
0.0490663
0.0488211
0.0485763
0.0483322
0.0480896
0.0478489
0.0476108
0.0473762
0.047146
0.0469209
0.046702
0.0464904
0.0462872
0.0460935
0.0459105
0.0457396
0.045582
0.0454392
0.0453126
0.0452035
0.0451135
0.045044
0.0449964
0.0449757
0.0449803
0.0450098
0.0450655
0.0451489
0.0452615
0.0454049
0.0455805
0.0457898
0.0460343
0.0463155
0.0466348
0.0469938
0.0473939
0.0478365
0.0483239
0.0488573
0.0494382
0.0500677
0.050746
0.0514732
0.0522483
0.0530698
0.0539363
0.0548454
0.0557942
0.0567755
0.0577746
0.0587732
0.0597406
0.060643
0.0614252
0.0620105
0.0576551
0.0579372
0.0579283
0.0577209
0.0573862
0.0569674
0.0565026
0.0560131
0.0555187
0.0550305
0.0545535
0.0540907
0.0536439
0.0532141
0.0528019
0.0524075
0.0520304
0.0516704
0.0513261
0.0509964
0.0506797
0.050375
0.050081
0.0497971
0.0495222
0.0492556
0.0489965
0.048744
0.0484973
0.0482558
0.0480188
0.0477856
0.0475556
0.0473283
0.0471032
0.0468799
0.0466579
0.046437
0.0462169
0.0459975
0.0457786
0.0455603
0.0453426
0.0451256
0.0449096
0.0446949
0.0444817
0.0442705
0.0440619
0.0438563
0.0436544
0.043457
0.0432647
0.0430785
0.0428992
0.0427277
0.042565
0.0424121
0.0422702
0.0421403
0.0420237
0.0419215
0.0418351
0.0417656
0.0417144
0.0416827
0.041675
0.0416889
0.0417249
0.0417841
0.0418679
0.0419778
0.0421151
0.0422812
0.0424775
0.0427054
0.0429662
0.0432614
0.0435922
0.0439603
0.044367
0.0448143
0.0453035
0.0458363
0.0464135
0.0470358
0.047703
0.0484145
0.0491688
0.0499647
0.0508003
0.0516727
0.0525754
0.0534951
0.0544146
0.055306
0.0561375
0.0568589
0.0573993
0.0535211
0.0537776
0.0537654
0.0535685
0.0532526
0.052858
0.0524192
0.0519566
0.0514882
0.0510246
0.0505707
0.0501295
0.0497029
0.049292
0.0488974
0.0485196
0.0481581
0.047813
0.0474831
0.0471673
0.0468643
0.0465732
0.0462928
0.0460225
0.0457615
0.045509
0.0452643
0.0450267
0.0447954
0.0445698
0.0443494
0.0441334
0.0439214
0.0437128
0.0435072
0.0433042
0.0431033
0.0429043
0.0427069
0.042511
0.0423164
0.0421231
0.0419312
0.0417406
0.0415515
0.0413642
0.0411789
0.0409959
0.0408157
0.0406387
0.0404655
0.0402966
0.0401326
0.0399743
0.0398224
0.0396776
0.0395409
0.0394131
0.0392951
0.0391879
0.0390925
0.03901
0.0389415
0.038888
0.0388508
0.0388309
0.0388321
0.0388519
0.0388913
0.0389513
0.0390333
0.0391384
0.039268
0.0394234
0.0396058
0.0398166
0.0400569
0.0403282
0.0406316
0.0409687
0.0413408
0.0417497
0.042197
0.0426839
0.0432117
0.0437809
0.0443914
0.0450427
0.0457335
0.0464628
0.0472287
0.0480288
0.048857
0.0497014
0.0505456
0.0513644
0.0521279
0.0527906
0.0532867
0.0498277
0.0500592
0.0500429
0.0498552
0.0495566
0.0491847
0.0487708
0.0483342
0.0478917
0.0474529
0.0470229
0.0466046
0.0461998
0.0458096
0.0454348
0.0450759
0.0447327
0.0444052
0.0440924
0.0437934
0.0435069
0.0432322
0.0429682
0.0427141
0.0424694
0.0422334
0.0420054
0.0417847
0.0415706
0.0413626
0.04116
0.0409624
0.0407692
0.0405799
0.040394
0.0402112
0.0400312
0.0398535
0.0396779
0.0395043
0.0393325
0.0391624
0.0389941
0.0388275
0.0386628
0.0385
0.0383395
0.0381814
0.0380262
0.037874
0.0377255
0.0375811
0.0374413
0.0373067
0.0371779
0.0370557
0.0369406
0.0368335
0.0367351
0.0366464
0.0365682
0.0365014
0.0364469
0.0364058
0.0363791
0.0363679
0.0363747
0.0363981
0.0364386
0.0364976
0.036576
0.0366751
0.0367961
0.03694
0.0371082
0.0373018
0.037522
0.0377701
0.0380471
0.0383546
0.0386938
0.0390664
0.0394739
0.0399178
0.040399
0.0409183
0.0414755
0.0420703
0.0427015
0.0433682
0.0440687
0.0448008
0.045559
0.0463323
0.0471057
0.0478558
0.0485548
0.0491614
0.0496149
0.0465266
0.0467342
0.0467136
0.0465345
0.0462524
0.0459022
0.0455126
0.0451016
0.0446847
0.0442711
0.0438656
0.043471
0.0430891
0.042721
0.0423675
0.0420292
0.0417059
0.0413979
0.041104
0.0408235
0.0405554
0.0402987
0.0400526
0.0398163
0.0395893
0.039371
0.0391607
0.0389578
0.0387616
0.0385717
0.0383874
0.0382083
0.0380337
0.0378634
0.0376967
0.0375335
0.0373732
0.0372155
0.0370604
0.0369074
0.0367565
0.0366076
0.0364606
0.0363155
0.0361724
0.0360314
0.0358927
0.0357564
0.0356228
0.0354921
0.0353649
0.0352414
0.0351222
0.0350077
0.0348983
0.0347949
0.0346978
0.0346078
0.0345256
0.0344518
0.0343874
0.0343331
0.0342897
0.0342581
0.0342392
0.0342341
0.0342445
0.0342694
0.0343097
0.0343662
0.0344401
0.0345324
0.0346441
0.0347764
0.0349305
0.0351073
0.035308
0.0355338
0.0357857
0.0360651
0.0363732
0.0367117
0.037082
0.0374855
0.0379232
0.0383958
0.0389033
0.0394453
0.0400208
0.040629
0.0412685
0.041937
0.0426298
0.0433367
0.0440436
0.0447292
0.0453677
0.0459214
0.0463345
0.0435753
0.0437607
0.0437364
0.0435656
0.0432994
0.0429704
0.0426044
0.0422187
0.0418273
0.041439
0.0410583
0.0406879
0.0403295
0.0399842
0.0396529
0.0393361
0.0390338
0.0387461
0.0384722
0.0382112
0.0379622
0.0377243
0.0374968
0.037279
0.0370702
0.0368699
0.0366776
0.0364925
0.0363143
0.0361422
0.0359758
0.0358146
0.0356581
0.0355058
0.0353574
0.0352124
0.0350705
0.0349315
0.034795
0.0346608
0.0345288
0.0343989
0.034271
0.034145
0.0340211
0.0338992
0.0337794
0.033662
0.0335471
0.0334351
0.0333261
0.0332205
0.0331187
0.0330211
0.0329282
0.0328404
0.0327583
0.0326825
0.0326135
0.032552
0.0324987
0.0324543
0.0324195
0.0323951
0.032382
0.0323812
0.0323936
0.0324189
0.0324577
0.0325109
0.0325796
0.0326646
0.0327671
0.0328878
0.033028
0.0331887
0.0333707
0.0335754
0.0338036
0.0340566
0.0343356
0.0346422
0.0349777
0.0353435
0.0357407
0.0361698
0.0366311
0.037124
0.0376477
0.0382016
0.0387842
0.0393937
0.0400256
0.0406706
0.0413156
0.0419412
0.0425233
0.0430276
0.0434028
0.0409369
0.041102
0.0410745
0.040912
0.0406616
0.0403531
0.0400103
0.0396494
0.0392833
0.0389201
0.0385641
0.038218
0.0378833
0.0375612
0.0372523
0.0369574
0.0366764
0.0364094
0.0361556
0.0359143
0.0356846
0.0354658
0.0352569
0.0350573
0.0348666
0.0346842
0.0345095
0.0343419
0.0341809
0.034026
0.0338767
0.0337325
0.033593
0.0334577