/*--------------------------------*- C++ -*----------------------------------*\
| =========                 |                                                 |
| \\      /  F ield         | OpenFOAM: The Open Source CFD Toolbox           |
|  \\    /   O peration     | Version:  2112                                  |
|   \\  /    A nd           | Website:  www.openfoam.com                      |
|    \\/     M anipulation  |                                                 |
\*---------------------------------------------------------------------------*/
FoamFile
{
    version     2.0;
    format      ascii;
    arch        "LSB;label=32;scalar=64";
    class       volScalarField;
    location    "2858";
    object      p;
}
// * * * * * * * * * * * * * * * * * * * * * * * * * * * * * * * * * * * * * //

dimensions      [0 2 -2 0 0 0 0];

internalField   nonuniform List<scalar> 
14751
(
-0.0001081
-0.000104873
-0.00010097
-9.7149e-05
-9.30521e-05
-8.8866e-05
-8.46275e-05
-8.03384e-05
-7.60662e-05
-7.18363e-05
-6.76909e-05
-6.36527e-05
-5.9759e-05
-5.60325e-05
-5.24903e-05
-4.91596e-05
-4.60405e-05
-4.31565e-05
-4.05033e-05
-3.80945e-05
-3.59246e-05
-3.39965e-05
-3.23054e-05
-3.08509e-05
-2.96248e-05
-2.86224e-05
-2.78372e-05
-2.72609e-05
-2.68873e-05
-2.67084e-05
-2.67162e-05
-2.69035e-05
-2.72623e-05
-2.77858e-05
-2.84668e-05
-2.92972e-05
-3.0272e-05
-3.13837e-05
-3.26272e-05
-3.39943e-05
-3.54814e-05
-3.70822e-05
-3.87903e-05
-4.06025e-05
-4.25112e-05
-4.45123e-05
-4.66008e-05
-4.8771e-05
-5.10186e-05
-5.33376e-05
-5.57229e-05
-5.817e-05
-6.06721e-05
-6.32244e-05
-6.58208e-05
-6.84552e-05
-7.11219e-05
-7.38138e-05
-7.65242e-05
-7.92482e-05
-8.19758e-05
-8.47025e-05
-8.74199e-05
-9.01191e-05
-9.2795e-05
-9.54384e-05
-9.80425e-05
-0.000100598
-0.000103098
-0.000105536
-0.000107902
-0.000110189
-0.00011239
-0.000114498
-0.000116504
-0.000118401
-0.000120182
-0.00012184
-0.000123364
-0.000124753
-0.000125988
-0.000127073
-0.000127988
-0.00012873
-0.000129286
-0.000129645
-0.000129795
-0.000129727
-0.000129425
-0.000128883
-0.000128077
-0.00012701
-0.000125669
-0.000124027
-0.000122127
-0.000119901
-0.000117393
-0.000114587
-0.000111787
-0.0001081
-0.000104873
-0.00010097
-9.71495e-05
-9.30528e-05
-8.88668e-05
-8.46283e-05
-8.03393e-05
-7.6067e-05
-7.18372e-05
-6.76918e-05
-6.36537e-05
-5.976e-05
-5.60335e-05
-5.24914e-05
-4.91608e-05
-4.60417e-05
-4.31579e-05
-4.05047e-05
-3.8096e-05
-3.59261e-05
-3.39981e-05
-3.2307e-05
-3.08526e-05
-2.96265e-05
-2.8624e-05
-2.78387e-05
-2.72624e-05
-2.68888e-05
-2.67097e-05
-2.67175e-05
-2.69047e-05
-2.72635e-05
-2.77868e-05
-2.84678e-05
-2.9298e-05
-3.02727e-05
-3.13844e-05
-3.26278e-05
-3.39948e-05
-3.54818e-05
-3.70825e-05
-3.87905e-05
-4.06026e-05
-4.25112e-05
-4.45122e-05
-4.66006e-05
-4.87708e-05
-5.10182e-05
-5.33371e-05
-5.57223e-05
-5.81693e-05
-6.06713e-05
-6.32235e-05
-6.58199e-05
-6.84542e-05
-7.11208e-05
-7.38126e-05
-7.65229e-05
-7.92468e-05
-8.19744e-05
-8.47009e-05
-8.74182e-05
-9.01173e-05
-9.27931e-05
-9.54365e-05
-9.80406e-05
-0.000100596
-0.000103096
-0.000105534
-0.000107899
-0.000110187
-0.000112388
-0.000114495
-0.000116501
-0.000118399
-0.00012018
-0.000121838
-0.000123362
-0.000124751
-0.000125986
-0.000127071
-0.000127986
-0.000128728
-0.000129284
-0.000129644
-0.000129794
-0.000129726
-0.000129424
-0.000128882
-0.000128076
-0.000127009
-0.000125668
-0.000124026
-0.000122127
-0.000119901
-0.000117392
-0.000114587
-0.000111787
-0.0001081
-0.000104875
-0.000100972
-9.71515e-05
-9.3055e-05
-8.8869e-05
-8.46303e-05
-8.0341e-05
-7.60685e-05
-7.18383e-05
-6.76928e-05
-6.36544e-05
-5.97606e-05
-5.60339e-05
-5.24916e-05
-4.9161e-05
-4.60421e-05
-4.31583e-05
-4.05054e-05
-3.80969e-05
-3.59272e-05
-3.39993e-05
-3.23084e-05
-3.0854e-05
-2.9628e-05
-2.86256e-05
-2.78403e-05
-2.72639e-05
-2.68903e-05
-2.67112e-05
-2.67189e-05
-2.6906e-05
-2.72647e-05
-2.77879e-05
-2.84688e-05
-2.92989e-05
-3.02735e-05
-3.1385e-05
-3.26283e-05
-3.39952e-05
-3.54821e-05
-3.70826e-05
-3.87906e-05
-4.06025e-05
-4.2511e-05
-4.45119e-05
-4.66001e-05
-4.87701e-05
-5.10174e-05
-5.33362e-05
-5.57213e-05
-5.81682e-05
-6.06701e-05
-6.32221e-05
-6.58183e-05
-6.84525e-05
-7.1119e-05
-7.38107e-05
-7.65209e-05
-7.92446e-05
-8.19721e-05
-8.46985e-05
-8.74157e-05
-9.01147e-05
-9.27904e-05
-9.54336e-05
-9.80376e-05
-0.000100593
-0.000103093
-0.00010553
-0.000107896
-0.000110184
-0.000112385
-0.000114492
-0.000116498
-0.000118396
-0.000120176
-0.000121834
-0.000123358
-0.000124748
-0.000125983
-0.000127068
-0.000127984
-0.000128726
-0.000129282
-0.000129642
-0.000129792
-0.000129724
-0.000129422
-0.000128881
-0.000128075
-0.000127008
-0.000125667
-0.000124025
-0.000122126
-0.000119901
-0.000117392
-0.000114587
-0.000111788
-0.000108101
-0.000104877
-0.000100974
-9.71548e-05
-9.30587e-05
-8.88725e-05
-8.46336e-05
-8.03437e-05
-7.60706e-05
-7.184e-05
-6.7694e-05
-6.36552e-05
-5.9761e-05
-5.6034e-05
-5.24915e-05
-4.91608e-05
-4.60418e-05
-4.31583e-05
-4.05056e-05
-3.80974e-05
-3.59281e-05
-3.40005e-05
-3.23098e-05
-3.08556e-05
-2.96297e-05
-2.86274e-05
-2.78422e-05
-2.72658e-05
-2.68921e-05
-2.6713e-05
-2.67206e-05
-2.69076e-05
-2.72661e-05
-2.77892e-05
-2.847e-05
-2.92999e-05
-3.02743e-05
-3.13857e-05
-3.26288e-05
-3.39955e-05
-3.54822e-05
-3.70825e-05
-3.87903e-05
-4.0602e-05
-4.25103e-05
-4.4511e-05
-4.6599e-05
-4.87688e-05
-5.10159e-05
-5.33345e-05
-5.57194e-05
-5.81661e-05
-6.06678e-05
-6.32196e-05
-6.58156e-05
-6.84496e-05
-7.11159e-05
-7.38074e-05
-7.65174e-05
-7.92409e-05
-8.19682e-05
-8.46945e-05
-8.74116e-05
-9.01104e-05
-9.2786e-05
-9.54291e-05
-9.80329e-05
-0.000100588
-0.000103088
-0.000105525
-0.000107891
-0.000110179
-0.00011238
-0.000114487
-0.000116493
-0.000118391
-0.000120171
-0.00012183
-0.000123354
-0.000124743
-0.000125979
-0.000127064
-0.00012798
-0.000128722
-0.000129279
-0.000129639
-0.00012979
-0.000129722
-0.000129421
-0.00012888
-0.000128074
-0.000127007
-0.000125667
-0.000124025
-0.000122126
-0.000119901
-0.000117393
-0.000114587
-0.000111791
-0.000108102
-0.000104881
-0.000100978
-9.71602e-05
-9.3065e-05
-8.88785e-05
-8.46393e-05
-8.03488e-05
-7.60751e-05
-7.18438e-05
-6.76973e-05
-6.3658e-05
-5.97632e-05
-5.60358e-05
-5.24929e-05
-4.91621e-05
-4.60432e-05
-4.31598e-05
-4.05075e-05
-3.80996e-05
-3.59306e-05
-3.40034e-05
-3.23129e-05
-3.08589e-05
-2.96331e-05
-2.86308e-05
-2.78455e-05
-2.72691e-05
-2.68953e-05
-2.6716e-05
-2.67234e-05
-2.69102e-05
-2.72685e-05
-2.77914e-05
-2.84718e-05
-2.93014e-05
-3.02756e-05
-3.13866e-05
-3.26294e-05
-3.39958e-05
-3.54821e-05
-3.70821e-05
-3.87895e-05
-4.06009e-05
-4.25088e-05
-4.45091e-05
-4.65968e-05
-4.87662e-05
-5.1013e-05
-5.33312e-05
-5.57157e-05
-5.81621e-05
-6.06634e-05
-6.32149e-05
-6.58106e-05
-6.84442e-05
-7.11102e-05
-7.38014e-05
-7.65111e-05
-7.92344e-05
-8.19614e-05
-8.46874e-05
-8.74042e-05
-9.01029e-05
-9.27782e-05
-9.54212e-05
-9.80249e-05
-0.00010058
-0.00010308
-0.000105517
-0.000107883
-0.00011017
-0.000112371
-0.000114478
-0.000116485
-0.000118382
-0.000120163
-0.000121822
-0.000123346
-0.000124736
-0.000125972
-0.000127057
-0.000127974
-0.000128717
-0.000129274
-0.000129635
-0.000129786
-0.000129719
-0.000129419
-0.000128878
-0.000128072
-0.000127006
-0.000125666
-0.000124024
-0.000122126
-0.000119901
-0.000117394
-0.000114587
-0.000111796
-0.000108106
-0.000104887
-0.000100986
-9.71688e-05
-9.30749e-05
-8.88885e-05
-8.4649e-05
-8.03579e-05
-7.60834e-05
-7.18514e-05
-6.77042e-05
-6.36643e-05
-5.97689e-05
-5.6041e-05
-5.24975e-05
-4.91665e-05
-4.60474e-05
-4.31643e-05
-4.05121e-05
-3.81046e-05
-3.59359e-05
-3.40089e-05
-3.23186e-05
-3.08646e-05
-2.96387e-05
-2.86364e-05
-2.78509e-05
-2.72742e-05
-2.69001e-05
-2.67205e-05
-2.67275e-05
-2.69139e-05
-2.72718e-05
-2.77941e-05
-2.84741e-05
-2.93032e-05
-3.02768e-05
-3.13873e-05
-3.26295e-05
-3.39954e-05
-3.54812e-05
-3.70806e-05
-3.87874e-05
-4.05982e-05
-4.25055e-05
-4.45053e-05
-4.65925e-05
-4.87614e-05
-5.10076e-05
-5.33253e-05
-5.57093e-05
-5.81551e-05
-6.06559e-05
-6.32069e-05
-6.58022e-05
-6.84354e-05
-7.11009e-05
-7.37917e-05
-7.6501e-05
-7.92239e-05
-8.19506e-05
-8.46763e-05
-8.73928e-05
-9.00913e-05
-9.27664e-05
-9.54091e-05
-9.80127e-05
-0.000100568
-0.000103068
-0.000105505
-0.00010787
-0.000110158
-0.000112359
-0.000114466
-0.000116473
-0.00011837
-0.000120151
-0.00012181
-0.000123335
-0.000124725
-0.000125961
-0.000127048
-0.000127965
-0.000128709
-0.000129267
-0.000129629
-0.000129781
-0.000129715
-0.000129415
-0.000128875
-0.000128071
-0.000127005
-0.000125666
-0.000124024
-0.000122127
-0.000119902
-0.000117396
-0.000114587
-0.000111804
-0.000108112
-0.000104897
-0.000100997
-9.71814e-05
-9.30891e-05
-8.89028e-05
-8.46631e-05
-8.03714e-05
-7.60959e-05
-7.18631e-05
-6.7715e-05
-6.36743e-05
-5.9778e-05
-5.60493e-05
-5.25051e-05
-4.91736e-05
-4.60542e-05
-4.3171e-05
-4.05189e-05
-3.81115e-05
-3.5943e-05
-3.40161e-05
-3.23258e-05
-3.08716e-05
-2.96455e-05
-2.86429e-05
-2.7857e-05
-2.72799e-05
-2.69054e-05
-2.67252e-05
-2.67316e-05
-2.69174e-05
-2.72746e-05
-2.77964e-05
-2.84756e-05
-2.93041e-05
-3.02769e-05
-3.13867e-05
-3.26281e-05
-3.39933e-05
-3.54784e-05
-3.7077e-05
-3.87831e-05
-4.05931e-05
-4.24998e-05
-4.44989e-05
-4.65853e-05
-4.87536e-05
-5.09991e-05
-5.33162e-05
-5.56996e-05
-5.81448e-05
-6.0645e-05
-6.31955e-05
-6.57902e-05
-6.84229e-05
-7.1088e-05
-7.37783e-05
-7.64873e-05
-7.92098e-05
-8.19363e-05
-8.46616e-05
-8.73779e-05
-9.00762e-05
-9.27512e-05
-9.53938e-05
-9.79973e-05
-0.000100552
-0.000103052
-0.000105489
-0.000107855
-0.000110143
-0.000112344
-0.000114452
-0.000116458
-0.000118356
-0.000120138
-0.000121797
-0.000123322
-0.000124713
-0.00012595
-0.000127037
-0.000127955
-0.0001287
-0.000129259
-0.000129623
-0.000129776
-0.000129711
-0.000129412
-0.000128874
-0.00012807
-0.000127005
-0.000125667
-0.000124025
-0.000122129
-0.000119906
-0.000117401
-0.000114591
-0.000111815
-0.000108123
-0.00010491
-0.000101013
-9.71982e-05
-9.31077e-05
-8.89217e-05
-8.46816e-05
-8.03891e-05
-7.61125e-05
-7.18786e-05
-6.77293e-05
-6.36875e-05
-5.97899e-05
-5.606e-05
-5.25147e-05
-4.91824e-05
-4.60624e-05
-4.31789e-05
-4.05267e-05
-3.81192e-05
-3.59506e-05
-3.40235e-05
-3.23331e-05
-3.08786e-05
-2.9652e-05
-2.86489e-05
-2.78625e-05
-2.72848e-05
-2.69096e-05
-2.67287e-05
-2.67344e-05
-2.69194e-05
-2.72758e-05
-2.77968e-05
-2.84751e-05
-2.93028e-05
-3.02748e-05
-3.13837e-05
-3.26243e-05
-3.39886e-05
-3.54728e-05
-3.70706e-05
-3.8776e-05
-4.05852e-05
-4.24911e-05
-4.44894e-05
-4.65751e-05
-4.87426e-05
-5.09875e-05
-5.33039e-05
-5.56866e-05
-5.81312e-05
-6.06309e-05
-6.31809e-05
-6.57751e-05
-6.84073e-05
-7.1072e-05
-7.3762e-05
-7.64706e-05
-7.91928e-05
-8.19191e-05
-8.46443e-05
-8.73604e-05
-9.00586e-05
-9.27336e-05
-9.53762e-05
-9.79797e-05
-0.000100535
-0.000103035
-0.000105472
-0.000107838
-0.000110126
-0.000112328
-0.000114436
-0.000116443
-0.000118341
-0.000120123
-0.000121783
-0.000123308
-0.0001247
-0.000125938
-0.000127026
-0.000127945
-0.000128692
-0.000129252
-0.000129617
-0.000129772
-0.000129709
-0.000129411
-0.000128874
-0.000128072
-0.000127008
-0.000125671
-0.00012403
-0.000122135
-0.000119913
-0.000117409
-0.000114597
-0.00011183
-0.000108138
-0.000104928
-0.000101033
-9.72194e-05
-9.31308e-05
-8.89452e-05
-8.47043e-05
-8.04108e-05
-7.61327e-05
-7.18973e-05
-6.77465e-05
-6.37031e-05
-5.98039e-05
-5.60723e-05
-5.25255e-05
-4.9192e-05
-4.60711e-05
-4.31869e-05
-4.05343e-05
-3.81265e-05
-3.59576e-05
-3.40302e-05
-3.23393e-05
-3.08842e-05
-2.96571e-05
-2.86534e-05
-2.78661e-05
-2.72878e-05
-2.69117e-05
-2.673e-05
-2.67348e-05
-2.69189e-05
-2.72745e-05
-2.77945e-05
-2.84719e-05
-2.92987e-05
-3.02697e-05
-3.13778e-05
-3.26174e-05
-3.39808e-05
-3.54642e-05
-3.70611e-05
-3.87657e-05
-4.0574e-05
-4.24792e-05
-4.44767e-05
-4.65617e-05
-4.87286e-05
-5.09727e-05
-5.32885e-05
-5.56707e-05
-5.81147e-05
-6.06139e-05
-6.31634e-05
-6.57572e-05
-6.83891e-05
-7.10534e-05
-7.37431e-05
-7.64516e-05
-7.91736e-05
-8.18998e-05
-8.46249e-05
-8.7341e-05
-9.00394e-05
-9.27144e-05
-9.53572e-05
-9.79609e-05
-0.000100516
-0.000103017
-0.000105454
-0.000107821
-0.000110109
-0.000112311
-0.000114419
-0.000116427
-0.000118326
-0.000120108
-0.000121769
-0.000123295
-0.000124688
-0.000125927
-0.000127016
-0.000127937
-0.000128685
-0.000129247
-0.000129613
-0.00012977
-0.000129708
-0.000129413
-0.000128877
-0.000128076
-0.000127014
-0.000125678
-0.000124038
-0.000122144
-0.000119923
-0.000117422
-0.000114607
-0.000111849
-0.000108158
-0.000104949
-0.000101058
-9.72452e-05
-9.31584e-05
-8.8973e-05
-8.47311e-05
-8.04363e-05
-7.61563e-05
-7.1919e-05
-6.77661e-05
-6.37208e-05
-5.98194e-05
-5.60857e-05
-5.25369e-05
-4.92017e-05
-4.60795e-05
-4.31943e-05
-4.0541e-05
-3.81324e-05
-3.5963e-05
-3.4035e-05
-3.23435e-05
-3.08877e-05
-2.96598e-05
-2.86553e-05
-2.78671e-05
-2.72879e-05
-2.69109e-05
-2.67282e-05
-2.67321e-05
-2.69153e-05
-2.72698e-05
-2.77889e-05
-2.84653e-05
-2.92912e-05
-3.02613e-05
-3.13684e-05
-3.26071e-05
-3.39697e-05
-3.54523e-05
-3.70483e-05
-3.87521e-05
-4.05596e-05
-4.2464e-05
-4.44609e-05
-4.65452e-05
-4.87114e-05
-5.0955e-05
-5.32702e-05
-5.56518e-05
-5.80954e-05
-6.05942e-05
-6.31433e-05
-6.57368e-05
-6.83684e-05
-7.10326e-05
-7.37222e-05
-7.64306e-05
-7.91526e-05
-8.18789e-05
-8.4604e-05
-8.73203e-05
-9.00189e-05
-9.26942e-05
-9.53373e-05
-9.79413e-05
-0.000100497
-0.000102998
-0.000105436
-0.000107803
-0.000110092
-0.000112294
-0.000114403
-0.000116411
-0.000118311
-0.000120094
-0.000121756
-0.000123283
-0.000124676
-0.000125917
-0.000127008
-0.00012793
-0.00012868
-0.000129244
-0.000129612
-0.000129771
-0.000129711
-0.000129417
-0.000128883
-0.000128084
-0.000127023
-0.000125689
-0.00012405
-0.000122157
-0.000119938
-0.000117438
-0.000114622
-0.000111872
-0.000108183
-0.000104976
-0.000101088
-9.72755e-05
-9.31903e-05
-8.90052e-05
-8.47618e-05
-8.04652e-05
-7.61829e-05
-7.19432e-05
-6.77877e-05
-6.37398e-05
-5.98357e-05
-5.60994e-05
-5.25481e-05
-4.92108e-05
-4.60868e-05
-4.32002e-05
-4.05458e-05
-3.81363e-05
-3.59661e-05
-3.40373e-05
-3.23449e-05
-3.08882e-05
-2.96594e-05
-2.86539e-05
-2.78648e-05
-2.72846e-05
-2.69066e-05
-2.67229e-05
-2.67258e-05
-2.69079e-05
-2.72615e-05
-2.77796e-05
-2.8455e-05
-2.928e-05
-3.02492e-05
-3.13554e-05
-3.25932e-05
-3.3955e-05
-3.54367e-05
-3.7032e-05
-3.8735e-05
-4.05418e-05
-4.24455e-05
-4.44417e-05
-4.65255e-05
-4.86911e-05
-5.09342e-05
-5.32489e-05
-5.56302e-05
-5.80734e-05
-6.05719e-05
-6.31208e-05
-6.57142e-05
-6.83457e-05
-7.10098e-05
-7.36994e-05
-7.6408e-05
-7.913e-05
-8.18566e-05
-8.45821e-05
-8.72986e-05
-8.99976e-05
-9.26733e-05
-9.5317e-05
-9.79215e-05
-0.000100478
-0.000102979
-0.000105418
-0.000107786
-0.000110075
-0.000112278
-0.000114388
-0.000116397
-0.000118297
-0.000120081
-0.000121744
-0.000123272
-0.000124667
-0.000125909
-0.000127001
-0.000127925
-0.000128677
-0.000129243
-0.000129614
-0.000129775
-0.000129717
-0.000129425
-0.000128893
-0.000128096
-0.000127037
-0.000125704
-0.000124066
-0.000122175
-0.000119957
-0.00011746
-0.000114642
-0.000111899
-0.000108213
-0.000105006
-0.000101122
-9.73103e-05
-9.32266e-05
-8.90414e-05
-8.47961e-05
-8.04973e-05
-7.62121e-05
-7.19695e-05
-6.78107e-05
-6.37598e-05
-5.98524e-05
-5.61128e-05
-5.25586e-05
-4.92186e-05
-4.60924e-05
-4.32041e-05
-4.05483e-05
-3.81375e-05
-3.59662e-05
-3.40364e-05
-3.2343e-05
-3.08852e-05
-2.96552e-05
-2.86487e-05
-2.78584e-05
-2.72772e-05
-2.68981e-05
-2.67134e-05
-2.67153e-05
-2.68965e-05
-2.7249e-05
-2.77662e-05
-2.84407e-05
-2.92648e-05
-3.02331e-05
-3.13385e-05
-3.25754e-05
-3.39365e-05
-3.54175e-05
-3.7012e-05
-3.87144e-05
-4.05205e-05
-4.24237e-05
-4.44193e-05
-4.65026e-05
-4.86677e-05
-5.09104e-05
-5.32249e-05
-5.56059e-05
-5.80489e-05
-6.05473e-05
-6.30961e-05
-6.56894e-05
-6.8321e-05
-7.09852e-05
-7.3675e-05
-7.6384e-05
-7.91063e-05
-8.18333e-05
-8.45592e-05
-8.72762e-05
-8.99759e-05
-9.26522e-05
-9.52965e-05
-9.79017e-05
-0.000100459
-0.000102961
-0.000105401
-0.000107769
-0.000110059
-0.000112263
-0.000114374
-0.000116383
-0.000118285
-0.00012007
-0.000121734
-0.000123263
-0.00012466
-0.000125903
-0.000126997
-0.000127923
-0.000128677
-0.000129246
-0.000129619
-0.000129782
-0.000129727
-0.000129437
-0.000128908
-0.000128113
-0.000127055
-0.000125723
-0.000124087
-0.000122197
-0.000119982
-0.000117486
-0.000114666
-0.000111931
-0.000108249
-0.000105042
-0.000101162
-9.73495e-05
-9.32669e-05
-8.90815e-05
-8.48337e-05
-8.05323e-05
-7.62436e-05
-7.19974e-05
-6.78349e-05
-6.37802e-05
-5.98689e-05
-5.61255e-05
-5.25678e-05
-4.92246e-05
-4.60958e-05
-4.32053e-05
-4.05478e-05
-3.81354e-05
-3.59628e-05
-3.40317e-05
-3.23371e-05
-3.0878e-05
-2.96469e-05
-2.86392e-05
-2.78477e-05
-2.72654e-05
-2.68852e-05
-2.66995e-05
-2.67003e-05
-2.68805e-05
-2.72321e-05
-2.77483e-05
-2.8422e-05
-2.92452e-05
-3.02128e-05
-3.13174e-05
-3.25536e-05
-3.39139e-05
-3.53943e-05
-3.69882e-05
-3.86901e-05
-4.04956e-05
-4.23983e-05
-4.43935e-05
-4.64764e-05
-4.86413e-05
-5.08837e-05
-5.3198e-05
-5.55789e-05
-5.80218e-05
-6.05202e-05
-6.30691e-05
-6.56626e-05
-6.82944e-05
-7.0959e-05
-7.36492e-05
-7.63586e-05
-7.90814e-05
-8.1809e-05
-8.45356e-05
-8.72533e-05
-8.99538e-05
-9.26309e-05
-9.52761e-05
-9.78822e-05
-0.00010044
-0.000102943
-0.000105384
-0.000107753
-0.000110045
-0.00011225
-0.000114361
-0.000116372
-0.000118275
-0.000120061
-0.000121726
-0.000123257
-0.000124654
-0.0001259
-0.000126996
-0.000127924
-0.000128681
-0.000129252
-0.000129627
-0.000129793
-0.00012974
-0.000129453
-0.000128926
-0.000128134
-0.000127078
-0.000125748
-0.000124113
-0.000122224
-0.000120011
-0.000117517
-0.000114696
-0.000111967
-0.000108291
-0.000105081
-0.000101206
-9.73932e-05
-9.33114e-05
-8.91255e-05
-8.48746e-05
-8.057e-05
-7.62772e-05
-7.20268e-05
-6.78598e-05
-6.38008e-05
-5.98849e-05
-5.61371e-05
-5.25753e-05
-4.92283e-05
-4.60966e-05
-4.32034e-05
-4.05438e-05
-3.81296e-05
-3.59554e-05
-3.40228e-05
-3.23269e-05
-3.08664e-05
-2.96339e-05
-2.86249e-05
-2.78322e-05
-2.72488e-05
-2.68675e-05
-2.66807e-05
-2.66805e-05
-2.68597e-05
-2.72105e-05
-2.77258e-05
-2.83986e-05
-2.92211e-05
-3.01879e-05
-3.12919e-05
-3.25274e-05
-3.38872e-05
-3.5367e-05
-3.69604e-05
-3.86619e-05
-4.04669e-05
-4.23693e-05
-4.43642e-05
-4.64469e-05
-4.86116e-05
-5.08539e-05
-5.31682e-05
-5.55491e-05
-5.79921e-05
-6.04907e-05
-6.30399e-05
-6.56338e-05
-6.8266e-05
-7.09311e-05
-7.36218e-05
-7.6332e-05
-7.90555e-05
-8.17839e-05
-8.45113e-05
-8.723e-05
-8.99315e-05
-9.26096e-05
-9.52558e-05
-9.7863e-05
-0.000100422
-0.000102927
-0.000105368
-0.000107739
-0.000110031
-0.000112237
-0.00011435
-0.000116362
-0.000118266
-0.000120054
-0.00012172
-0.000123252
-0.000124652
-0.000125899
-0.000126998
-0.000127928
-0.000128687
-0.000129261
-0.00012964
-0.000129808
-0.000129758
-0.000129474
-0.000128949
-0.000128159
-0.000127105
-0.000125777
-0.000124144
-0.000122256
-0.000120045
-0.000117553
-0.000114731
-0.000112007
-0.000108338
-0.000105126
-0.000101255
-9.74412e-05
-9.33599e-05
-8.91731e-05
-8.49186e-05
-8.06102e-05
-7.63126e-05
-7.20575e-05
-6.78853e-05
-6.38213e-05
-5.99002e-05
-5.61473e-05
-5.25808e-05
-4.92295e-05
-4.60943e-05
-4.3198e-05
-4.0536e-05
-3.81197e-05
-3.59436e-05
-3.40093e-05
-3.23118e-05
-3.08498e-05
-2.96159e-05
-2.86056e-05
-2.78116e-05
-2.7227e-05
-2.68445e-05
-2.66566e-05
-2.66555e-05
-2.68338e-05
-2.71837e-05
-2.76983e-05
-2.83703e-05
-2.91922e-05
-3.01584e-05
-3.12617e-05
-3.24967e-05
-3.38561e-05
-3.53354e-05
-3.69284e-05
-3.86296e-05
-4.04344e-05
-4.23365e-05
-4.43313e-05
-4.64139e-05
-4.85786e-05
-5.0821e-05
-5.31353e-05
-5.55165e-05
-5.79598e-05
-6.04588e-05
-6.30084e-05
-6.56028e-05
-6.82357e-05
-7.09014e-05
-7.3593e-05
-7.6304e-05
-7.90284e-05
-8.17579e-05
-8.44864e-05
-8.72061e-05
-8.99089e-05
-9.25882e-05
-9.52357e-05
-9.78441e-05
-0.000100405
-0.00010291
-0.000105353
-0.000107725
-0.000110019
-0.000112226
-0.000114341
-0.000116354
-0.00011826
-0.000120049
-0.000121717
-0.000123251
-0.000124652
-0.000125902
-0.000127002
-0.000127936
-0.000128697
-0.000129274
-0.000129656
-0.000129827
-0.00012978
-0.000129499
-0.000128977
-0.00012819
-0.000127138
-0.000125812
-0.00012418
-0.000122293
-0.000120085
-0.000117595
-0.000114771
-0.000112052
-0.00010839
-0.000105175
-0.00010131
-9.74938e-05
-9.34125e-05
-8.92244e-05
-8.49657e-05
-8.06529e-05
-7.63499e-05
-7.20892e-05
-6.79111e-05
-6.38414e-05
-5.99144e-05
-5.61558e-05
-5.2584e-05
-4.92279e-05
-4.60887e-05
-4.31889e-05
-4.05241e-05
-3.81053e-05
-3.59271e-05
-3.39909e-05
-3.22916e-05
-3.08279e-05
-2.95924e-05
-2.85807e-05
-2.77853e-05
-2.71995e-05
-2.6816e-05
-2.66271e-05
-2.6625e-05
-2.68024e-05
-2.71516e-05
-2.76654e-05
-2.83368e-05
-2.91581e-05
-3.01238e-05
-3.12267e-05
-3.24612e-05
-3.38202e-05
-3.52993e-05
-3.6892e-05
-3.85931e-05
-4.03976e-05
-4.22997e-05
-4.42946e-05
-4.63772e-05
-4.8542e-05
-5.07846e-05
-5.30993e-05
-5.54809e-05
-5.79246e-05
-6.04242e-05
-6.29744e-05
-6.55696e-05
-6.82033e-05
-7.08699e-05
-7.35625e-05
-7.62746e-05
-7.90001e-05
-8.17309e-05
-8.44607e-05
-8.71818e-05
-8.9886e-05
-9.25668e-05
-9.52158e-05
-9.78257e-05
-0.000100388
-0.000102895
-0.000105339
-0.000107713
-0.000110008
-0.000112217
-0.000114333
-0.000116348
-0.000118255
-0.000120046
-0.000121716
-0.000123252
-0.000124655
-0.000125907
-0.00012701
-0.000127946
-0.000128711
-0.000129291
-0.000129676
-0.000129851
-0.000129807
-0.000129529
-0.000129009
-0.000128225
-0.000127176
-0.000125851
-0.000124222
-0.000122336
-0.00012013
-0.000117642
-0.000114817
-0.000112102
-0.000108449
-0.000105229
-0.000101369
-9.75511e-05
-9.34693e-05
-8.92796e-05
-8.5016e-05
-8.06981e-05
-7.6389e-05
-7.21221e-05
-6.79374e-05
-6.38612e-05
-5.99275e-05
-5.61624e-05
-5.25848e-05
-4.92231e-05
-4.60794e-05
-4.31757e-05
-4.05078e-05
-3.80861e-05
-3.59056e-05
-3.39672e-05
-3.2266e-05
-3.08004e-05
-2.95632e-05
-2.855e-05
-2.77532e-05
-2.71662e-05
-2.67815e-05
-2.65916e-05
-2.65886e-05
-2.67653e-05
-2.71137e-05
-2.76269e-05
-2.82977e-05
-2.91186e-05
-3.00838e-05
-3.11864e-05
-3.24206e-05
-3.37794e-05
-3.52583e-05
-3.68509e-05
-3.8552e-05
-4.03565e-05
-4.22587e-05
-4.42537e-05
-4.63365e-05
-4.85017e-05
-5.07447e-05
-5.30598e-05
-5.5442e-05
-5.78864e-05
-6.03867e-05
-6.29378e-05
-6.55339e-05
-6.81686e-05
-7.08364e-05
-7.35302e-05
-7.62437e-05
-7.89705e-05
-8.17028e-05
-8.44341e-05
-8.71568e-05
-8.98626e-05
-9.25451e-05
-9.51959e-05
-9.78075e-05
-0.000100371
-0.00010288
-0.000105327
-0.000107702
-0.000109999
-0.000112209
-0.000114327
-0.000116344
-0.000118253
-0.000120046
-0.000121717
-0.000123256
-0.000124661
-0.000125916
-0.000127021
-0.000127961
-0.000128729
-0.000129312
-0.0001297
-0.000129879
-0.000129838
-0.000129563
-0.000129047
-0.000128266
-0.000127219
-0.000125896
-0.000124269
-0.000122384
-0.00012018
-0.000117694
-0.000114869
-0.000112156
-0.000108513
-0.000105289
-0.000101433
-9.76132e-05
-9.35306e-05
-8.93387e-05
-8.50696e-05
-8.0746e-05
-7.643e-05
-7.2156e-05
-6.79639e-05
-6.38805e-05
-5.99394e-05
-5.61671e-05
-5.25829e-05
-4.92151e-05
-4.60664e-05
-4.31582e-05
-4.04867e-05
-3.80618e-05
-3.58786e-05
-3.39378e-05
-3.22344e-05
-3.07668e-05
-2.95279e-05
-2.8513e-05
-2.77148e-05
-2.71265e-05
-2.67407e-05
-2.65498e-05
-2.6546e-05
-2.67219e-05
-2.70697e-05
-2.75824e-05
-2.82527e-05
-2.90733e-05
-3.00382e-05
-3.11406e-05
-3.23746e-05
-3.37334e-05
-3.52122e-05
-3.68048e-05
-3.8506e-05
-4.03107e-05
-4.22131e-05
-4.42084e-05
-4.62917e-05
-4.84573e-05
-5.07009e-05
-5.30167e-05
-5.53996e-05
-5.78448e-05
-6.03461e-05
-6.28982e-05
-6.54954e-05
-6.81315e-05
-7.08006e-05
-7.34958e-05
-7.62109e-05
-7.89393e-05
-8.16734e-05
-8.44064e-05
-8.71309e-05
-8.98387e-05
-9.25232e-05
-9.51759e-05
-9.77895e-05
-0.000100355
-0.000102866
-0.000105314
-0.000107691
-0.000109991
-0.000112203
-0.000114323
-0.000116342
-0.000118253
-0.000120048
-0.000121721
-0.000123262
-0.00012467
-0.000125927
-0.000127036
-0.000127978
-0.00012875
-0.000129337
-0.000129729
-0.000129911
-0.000129875
-0.000129603
-0.00012909
-0.000128312
-0.000127268
-0.000125947
-0.000124323
-0.000122437
-0.000120237
-0.000117753
-0.000114927
-0.000112215
-0.000108584
-0.000105354
-0.000101503
-9.76805e-05
-9.35966e-05
-8.9402e-05
-8.51268e-05
-8.07966e-05
-7.6473e-05
-7.21912e-05
-6.79908e-05
-6.38993e-05
-5.995e-05
-5.61697e-05
-5.25782e-05
-4.92036e-05
-4.60493e-05
-4.31361e-05
-4.04606e-05
-3.80321e-05
-3.5846e-05
-3.39024e-05
-3.21967e-05
-3.07269e-05
-2.9486e-05
-2.84695e-05
-2.76697e-05
-2.70802e-05
-2.66932e-05
-2.65014e-05
-2.64968e-05
-2.6672e-05
-2.70192e-05
-2.75315e-05
-2.82015e-05
-2.90218e-05
-2.99866e-05
-3.10888e-05
-3.23228e-05
-3.36816e-05
-3.51606e-05
-3.67534e-05
-3.84548e-05
-4.02598e-05
-4.21627e-05
-4.41585e-05
-4.62423e-05
-4.84086e-05
-5.06529e-05
-5.29695e-05
-5.53534e-05
-5.77996e-05
-6.0302e-05
-6.28554e-05
-6.5454e-05
-6.80915e-05
-7.07622e-05
-7.34592e-05
-7.61761e-05
-7.89064e-05
-8.16424e-05
-8.43775e-05
-8.71041e-05
-8.98141e-05
-9.25008e-05
-9.51557e-05
-9.77716e-05
-0.00010034
-0.000102853
-0.000105303
-0.000107683
-0.000109984
-0.000112199
-0.000114321
-0.000116342
-0.000118255
-0.000120053
-0.000121728
-0.000123272
-0.000124682
-0.000125942
-0.000127054
-0.000128
-0.000128775
-0.000129366
-0.000129762
-0.000129948
-0.000129916
-0.000129648
-0.000129139
-0.000128364
-0.000127322
-0.000126004
-0.000124382
-0.000122497
-0.000120299
-0.000117817
-0.000114992
-0.00011228
-0.000108661
-0.000105425
-0.000101578
-9.77533e-05
-9.36677e-05
-8.94699e-05
-8.51878e-05
-8.08504e-05
-7.65182e-05
-7.22277e-05
-6.80182e-05
-6.39177e-05
-5.99594e-05
-5.61702e-05
-5.25706e-05
-4.91884e-05
-4.60279e-05
-4.31091e-05
-4.04292e-05
-3.79967e-05
-3.58072e-05
-3.38608e-05
-3.21524e-05
-3.06802e-05
-2.94373e-05
-2.84189e-05
-2.76176e-05
-2.70268e-05
-2.66387e-05
-2.64459e-05
-2.64405e-05
-2.66151e-05
-2.69619e-05
-2.74738e-05
-2.81435e-05
-2.89638e-05
-2.99285e-05
-3.10308e-05
-3.22648e-05
-3.36239e-05
-3.51031e-05
-3.66963e-05
-3.83981e-05
-4.02036e-05
-4.2107e-05
-4.41034e-05
-4.61879e-05
-4.83551e-05
-5.06003e-05
-5.2918e-05
-5.5303e-05
-5.77505e-05
-6.02543e-05
-6.28092e-05
-6.54093e-05
-6.80486e-05
-7.07211e-05
-7.342e-05
-7.6139e-05
-7.88714e-05
-8.16097e-05
-8.43471e-05
-8.70761e-05
-8.97886e-05
-9.24777e-05
-9.51352e-05
-9.77536e-05
-0.000100324
-0.00010284
-0.000105293
-0.000107675
-0.000109978
-0.000112196
-0.00011432
-0.000116344
-0.00011826
-0.00012006
-0.000121738
-0.000123284
-0.000124697
-0.00012596
-0.000127075
-0.000128025
-0.000128805
-0.0001294
-0.0001298
-0.000129991
-0.000129962
-0.000129699
-0.000129193
-0.000128422
-0.000127383
-0.000126067
-0.000124448
-0.000122564
-0.000120369
-0.000117889
-0.000115063
-0.000112351
-0.000108746
-0.000105502
-0.00010166
-9.7832e-05
-9.37442e-05
-8.95426e-05
-8.52529e-05
-8.09074e-05
-7.65659e-05
-7.22657e-05
-6.80462e-05
-6.39357e-05
-5.99674e-05
-5.61684e-05
-5.256e-05
-4.91695e-05
-4.60021e-05
-4.30772e-05
-4.03922e-05
-3.79554e-05
-3.57621e-05
-3.38124e-05
-3.21012e-05
-3.06264e-05
-2.93812e-05
-2.83609e-05
-2.7558e-05
-2.69658e-05
-2.65766e-05
-2.63829e-05
-2.63768e-05
-2.65509e-05
-2.68973e-05
-2.74089e-05
-2.80785e-05
-2.88988e-05
-2.98635e-05
-3.0966e-05
-3.22003e-05
-3.35597e-05
-3.50394e-05
-3.6633e-05
-3.83354e-05
-4.01415e-05
-4.20457e-05
-4.40429e-05
-4.61284e-05
-4.82965e-05
-5.05429e-05
-5.28618e-05
-5.52482e-05
-5.76971e-05
-6.02025e-05
-6.27591e-05
-6.53611e-05
-6.80023e-05
-7.06769e-05
-7.3378e-05
-7.60994e-05
-7.88342e-05
-8.1575e-05
-8.4315e-05
-8.70467e-05
-8.9762e-05
-9.24539e-05
-9.51143e-05
-9.77355e-05
-0.000100309
-0.000102828
-0.000105283
-0.000107668
-0.000109974
-0.000112195
-0.000114322
-0.000116348
-0.000118266
-0.000120069
-0.00012175
-0.000123299
-0.000124715
-0.000125982
-0.000127101
-0.000128055
-0.000128838
-0.000129438
-0.000129843
-0.000130038
-0.000130014
-0.000129755
-0.000129253
-0.000128487
-0.000127451
-0.000126137
-0.000124521
-0.000122637
-0.000120445
-0.000117967
-0.000115142
-0.000112429
-0.000108837
-0.000105587
-0.000101748
-9.79172e-05
-9.38267e-05
-8.96206e-05
-8.53226e-05
-8.09681e-05
-7.66163e-05
-7.23055e-05
-6.80749e-05
-6.39535e-05
-5.99741e-05
-5.61645e-05
-5.25462e-05
-4.91466e-05
-4.59715e-05
-4.30398e-05
-4.03493e-05
-3.79076e-05
-3.57103e-05
-3.37569e-05
-3.20426e-05
-3.05649e-05
-2.93174e-05
-2.8295e-05
-2.74904e-05
-2.68968e-05
-2.65064e-05
-2.63119e-05
-2.63051e-05
-2.64787e-05
-2.68248e-05
-2.73363e-05
-2.80059e-05
-2.88263e-05
-2.97913e-05
-3.08941e-05
-3.21287e-05
-3.34887e-05
-3.49689e-05
-3.65632e-05
-3.82664e-05
-4.00732e-05
-4.19783e-05
-4.39766e-05
-4.60631e-05
-4.82325e-05
-5.04802e-05
-5.28005e-05
-5.51885e-05
-5.76391e-05
-6.01463e-05
-6.27049e-05
-6.5309e-05
-6.79524e-05
-7.06294e-05
-7.3333e-05
-7.6057e-05
-7.87946e-05
-8.15382e-05
-8.42812e-05
-8.70159e-05
-8.97343e-05
-9.24293e-05
-9.50928e-05
-9.77172e-05
-0.000100294
-0.000102816
-0.000105274
-0.000107662
-0.000109972
-0.000112195
-0.000114325
-0.000116354
-0.000118276
-0.000120081
-0.000121765
-0.000123318
-0.000124736
-0.000126008
-0.00012713
-0.000128088
-0.000128877
-0.000129481
-0.000129891
-0.000130091
-0.000130072
-0.000129818
-0.00012932
-0.000128558
-0.000127526
-0.000126215
-0.000124601
-0.000122718
-0.000120529
-0.000118053
-0.000115228
-0.000112514
-0.000108937
-0.000105679
-0.000101844
-9.80093e-05
-9.39156e-05
-8.97043e-05
-8.53972e-05
-8.10328e-05
-7.66697e-05
-7.23472e-05
-6.81045e-05
-6.3971e-05
-5.99796e-05
-5.61582e-05
-5.25291e-05
-4.91195e-05
-4.59361e-05
-4.29969e-05
-4.03002e-05
-3.78531e-05
-3.56512e-05
-3.36938e-05
-3.19761e-05
-3.04954e-05
-2.92453e-05
-2.82208e-05
-2.74143e-05
-2.68193e-05
-2.64278e-05
-2.62324e-05
-2.6225e-05
-2.63982e-05
-2.67441e-05
-2.72556e-05
-2.79253e-05
-2.87459e-05
-2.97113e-05
-3.08146e-05
-3.20498e-05
-3.34104e-05
-3.48913e-05
-3.64864e-05
-3.81905e-05
-3.99984e-05
-4.19046e-05
-4.3904e-05
-4.59919e-05
-4.81627e-05
-5.04119e-05
-5.27339e-05
-5.51237e-05
-5.75762e-05
-6.00855e-05
-6.26463e-05
-6.52528e-05
-6.78988e-05
-7.05784e-05
-7.32848e-05
-7.60117e-05
-7.87523e-05
-8.14992e-05
-8.42455e-05
-8.69835e-05
-8.97054e-05
-9.24039e-05
-9.50709e-05
-9.76987e-05
-0.000100279
-0.000102804
-0.000105266
-0.000107657
-0.00010997
-0.000112197
-0.00011433
-0.000116363
-0.000118287
-0.000120096
-0.000121783
-0.000123339