/*--------------------------------*- C++ -*----------------------------------*\
| =========                 |                                                 |
| \\      /  F ield         | OpenFOAM: The Open Source CFD Toolbox           |
|  \\    /   O peration     | Version:  2112                                  |
|   \\  /    A nd           | Website:  www.openfoam.com                      |
|    \\/     M anipulation  |                                                 |
\*---------------------------------------------------------------------------*/
FoamFile
{
    version     2.0;
    format      ascii;
    arch        "LSB;label=32;scalar=64";
    class       surfaceScalarField;
    location    "2858";
    object      phi;
}
// * * * * * * * * * * * * * * * * * * * * * * * * * * * * * * * * * * * * * //

dimensions      [0 3 -1 0 0 0 0];

oriented        oriented;

internalField   nonuniform List<scalar> 
29254
(
-7.35986e-07
-1.99518e-09
-7.37326e-07
1.34028e-09
-7.35583e-07
-1.74336e-09
-7.33537e-07
-2.0455e-09
-7.3003e-07
-3.50763e-09
-7.24987e-07
-5.0421e-09
-7.18988e-07
-5.99922e-09
-7.11738e-07
-7.24981e-09
-7.03474e-07
-8.2645e-09
-6.94316e-07
-9.15811e-09
-6.84424e-07
-9.89196e-09
-6.73795e-07
-1.06293e-08
-6.62672e-07
-1.11225e-08
-6.51247e-07
-1.14253e-08
-6.39571e-07
-1.16758e-08
-6.27871e-07
-1.16997e-08
-6.16129e-07
-1.17423e-08
-6.04519e-07
-1.16101e-08
-5.93067e-07
-1.14519e-08
-5.8194e-07
-1.11264e-08
-5.71132e-07
-1.08081e-08
-5.60694e-07
-1.04381e-08
-5.50658e-07
-1.00365e-08
-5.41124e-07
-9.53426e-09
-5.32061e-07
-9.0628e-09
-5.23445e-07
-8.6153e-09
-5.15312e-07
-8.13366e-09
-5.07627e-07
-7.68455e-09
-5.00433e-07
-7.19378e-09
-4.93734e-07
-6.69915e-09
-4.87522e-07
-6.21266e-09
-4.8179e-07
-5.73205e-09
-4.76526e-07
-5.2639e-09
-4.71722e-07
-4.80334e-09
-4.6737e-07
-4.35271e-09
-4.63414e-07
-3.95562e-09
-4.5988e-07
-3.53356e-09
-4.56759e-07
-3.12132e-09
-4.54043e-07
-2.71608e-09
-4.51666e-07
-2.37733e-09
-4.4966e-07
-2.00588e-09
-4.48057e-07
-1.60275e-09
-4.46826e-07
-1.23075e-09
-4.46009e-07
-8.17608e-10
-4.45551e-07
-4.5789e-10
-4.45441e-07
-1.09643e-10
-4.45679e-07
2.37873e-10
-4.46256e-07
5.76796e-10
-4.47172e-07
9.16044e-10
-4.4842e-07
1.24797e-09
-4.49996e-07
1.57564e-09
-4.51918e-07
1.92275e-09
-4.54164e-07
2.24593e-09
-4.5673e-07
2.5658e-09
-4.59614e-07
2.88386e-09
-4.62809e-07
3.19537e-09
-4.66317e-07
3.50775e-09
-4.70127e-07
3.80999e-09
-4.74233e-07
4.10635e-09
-4.78687e-07
4.45377e-09
-4.83431e-07
4.74382e-09
-4.88481e-07
5.05056e-09
-4.93794e-07
5.31287e-09
-4.99302e-07
5.50795e-09
-5.05049e-07
5.74654e-09
-5.11025e-07
5.97638e-09
-5.17222e-07
6.19691e-09
-5.23586e-07
6.36381e-09
-5.30135e-07
6.54869e-09
-5.36858e-07
6.72302e-09
-5.43734e-07
6.87684e-09
-5.50756e-07
7.02199e-09
-5.57902e-07
7.1456e-09
-5.65159e-07
7.2572e-09
-5.72519e-07
7.35953e-09
-5.7997e-07
7.45075e-09
-5.87494e-07
7.52445e-09
-5.95102e-07
7.60757e-09
-6.0275e-07
7.6481e-09
-6.10497e-07
7.74755e-09
-6.18252e-07
7.7545e-09
-6.26094e-07
7.84207e-09
-6.33965e-07
7.87166e-09
-6.41865e-07
7.8991e-09
-6.49792e-07
7.9273e-09
-6.57739e-07
7.94716e-09
-6.65656e-07
7.91731e-09
-6.73511e-07
7.85502e-09
-6.81259e-07
7.74768e-09
-6.8888e-07
7.62075e-09
-6.96226e-07
7.34668e-09
-7.03375e-07
7.14899e-09
-7.10197e-07
6.82116e-09
-7.16324e-07
6.12722e-09
-7.22107e-07
5.78278e-09
-7.26855e-07
4.74876e-09
-7.30478e-07
3.62288e-09
-7.33071e-07
2.59247e-09
4.91014e-09
-2.27684e-06
-8.56756e-09
-2.27945e-06
3.94715e-09
-2.2794e-06
-1.79199e-09
-2.28083e-06
-6.18876e-10
-2.28057e-06
-3.76545e-09
-2.27672e-06
-8.89091e-09
-2.27071e-06
-1.20088e-08
-2.26149e-06
-1.64703e-08
-2.24937e-06
-2.03863e-08
-2.23459e-06
-2.3936e-08
-2.21748e-06
-2.70033e-08
-2.19805e-06
-3.00599e-08
-2.1768e-06
-3.23661e-08
-2.15415e-06
-3.40747e-08
-2.13027e-06
-3.55646e-08
-2.1057e-06
-3.6266e-08
-2.08044e-06
-3.70064e-08
-2.05495e-06
-3.7092e-08
-2.02938e-06
-3.70278e-08
-2.00413e-06
-3.63721e-08
-1.97929e-06
-3.56543e-08
-1.955e-06
-3.4729e-08
-1.93139e-06
-3.36454e-08
-1.90871e-06
-3.22128e-08
-1.88696e-06
-3.08088e-08
-1.86619e-06
-2.93882e-08
-1.84647e-06
-2.78523e-08
-1.82779e-06
-2.63619e-08
-1.81026e-06
-2.47239e-08
-1.79393e-06
-2.30362e-08
-1.77879e-06
-2.13488e-08
-1.76487e-06
-1.96548e-08
-1.75215e-06
-1.79784e-08
-1.74065e-06
-1.63097e-08
-1.73034e-06
-1.46624e-08
-1.72113e-06
-1.31665e-08
-1.71307e-06
-1.1587e-08
-1.70617e-06
-1.00226e-08
-1.70041e-06
-8.4787e-09
-1.69566e-06
-7.12071e-09
-1.69201e-06
-5.65797e-09
-1.68949e-06
-4.12916e-09
-1.68805e-06
-2.66677e-09
-1.68779e-06
-1.07954e-09
-1.6886e-06
3.50877e-10
-1.69044e-06
1.73579e-09
-1.69333e-06
3.12097e-09
-1.69722e-06
4.46963e-09
-1.70212e-06
5.81759e-09
-1.70801e-06
7.13323e-09
-1.71486e-06
8.42639e-09
-1.72271e-06
9.77405e-09
-1.73149e-06
1.10313e-08
-1.74119e-06
1.22605e-08
-1.75177e-06
1.34704e-08
-1.76321e-06
1.46354e-08
-1.77549e-06
1.57845e-08
-1.78855e-06
1.68737e-08
-1.80237e-06
1.79219e-08
-1.81701e-06
1.90919e-08
-1.83232e-06
2.00567e-08
-1.84827e-06
2.10008e-08
-1.86477e-06
2.18086e-08
-1.88162e-06
2.23607e-08
-1.89886e-06
2.29857e-08
-1.91643e-06
2.35429e-08
-1.93424e-06
2.40158e-08
-1.95215e-06
2.42731e-08
-1.97013e-06
2.45282e-08
-1.98812e-06
2.47077e-08
-2.00601e-06
2.47682e-08
-2.02374e-06
2.47564e-08
-2.04122e-06
2.46244e-08
-2.05838e-06
2.44146e-08
-2.07516e-06
2.41436e-08
-2.09151e-06
2.38014e-08
-2.10735e-06
2.33599e-08
-2.12268e-06
2.2933e-08
-2.13736e-06
2.23351e-08
-2.15155e-06
2.19365e-08
-2.16499e-06
2.11881e-08
-2.17787e-06
2.07297e-08
-2.19009e-06
2.00872e-08
-2.20165e-06
1.94621e-08
-2.21258e-06
1.8853e-08
-2.22285e-06
1.82225e-08
-2.23237e-06
1.74325e-08
-2.24112e-06
1.66093e-08
-2.24902e-06
1.56489e-08
-2.25609e-06
1.46872e-08
-2.26197e-06
1.32247e-08
-2.2669e-06
1.20771e-08
-2.27086e-06
1.07835e-08
-2.27328e-06
8.5453e-09
-2.27528e-06
7.78407e-09
-2.27554e-06
5.01274e-09
-2.27532e-06
3.39692e-09
-2.27605e-06
3.32997e-09
1.2271e-08
-3.93837e-06
-2.26862e-08
-3.9425e-06
8.07634e-09
-3.94918e-06
4.88845e-09
-3.96261e-06
1.28146e-08
-3.97668e-06
1.03001e-08
-3.98643e-06
8.57452e-10
-3.99383e-06
-4.60491e-09
-3.99683e-06
-1.347e-08
-3.99547e-06
-2.17464e-08
-3.98995e-06
-2.94534e-08
-3.98064e-06
-3.63107e-08
-3.96747e-06
-4.32372e-08
-3.95106e-06
-4.87759e-08
-3.93193e-06
-5.32047e-08
-3.91026e-06
-5.72287e-08
-3.88689e-06
-5.96375e-08
-3.86172e-06
-6.21809e-08
-3.8355e-06
-6.33107e-08
-3.80844e-06
-6.40904e-08
-3.78116e-06
-6.36445e-08
-3.75384e-06
-6.2979e-08
-3.72671e-06
-6.18571e-08
-3.7e-06
-6.03604e-08
-3.67407e-06
-5.81374e-08
-3.649e-06
-5.58766e-08
-3.62495e-06
-5.34455e-08
-3.60204e-06
-5.07599e-08
-3.58033e-06
-4.80715e-08
-3.56e-06
-4.50567e-08
-3.54115e-06
-4.1881e-08
-3.52385e-06
-3.86513e-08
-3.50815e-06
-3.53528e-08
-3.49409e-06
-3.20432e-08
-3.48169e-06
-2.87062e-08
-3.47097e-06
-2.53799e-08
-3.46183e-06
-2.23062e-08
-3.45438e-06
-1.90443e-08
-3.44862e-06
-1.57826e-08
-3.44456e-06
-1.2538e-08
-3.44206e-06
-9.61324e-09
-3.44125e-06
-6.46775e-09
-3.44214e-06
-3.23826e-09
-3.44472e-06
-9.1624e-11
-3.4491e-06
3.2961e-09
-3.45515e-06
6.40427e-09
-3.46283e-06
9.41455e-09
-3.47213e-06
1.24275e-08
-3.48302e-06
1.53545e-08
-3.49547e-06
1.82699e-08
-3.50944e-06
2.11022e-08
-3.52489e-06
2.38724e-08
-3.54183e-06
2.67184e-08
-3.56016e-06
2.93585e-08
-3.5798e-06
3.19025e-08
-3.6007e-06
3.43706e-08
-3.62276e-06
3.6697e-08
-3.64592e-06
3.89418e-08
-3.67005e-06
4.10057e-08
-3.69506e-06
4.29292e-08
-3.72097e-06
4.50017e-08
-3.74752e-06
4.66104e-08
-3.77456e-06
4.80417e-08
-3.80194e-06
4.91849e-08
-3.82932e-06
4.97395e-08
-3.85664e-06
5.03114e-08
-3.88375e-06
5.06513e-08
-3.91046e-06
5.07212e-08
-3.93646e-06
5.02739e-08
-3.96164e-06
4.97091e-08
-3.98584e-06
4.89044e-08
-4.00884e-06
4.77694e-08
-4.03049e-06
4.64093e-08
-4.05059e-06
4.47288e-08
-4.06901e-06
4.28303e-08
-4.08563e-06
4.07645e-08
-4.10034e-06
3.85118e-08
-4.11298e-06
3.59975e-08
-4.12356e-06
3.35121e-08
-4.13186e-06
3.06406e-08
-4.13815e-06
2.82278e-08
-4.14201e-06
2.50455e-08
-4.14382e-06
2.25425e-08
-4.14346e-06
1.97267e-08
-4.14104e-06
1.70431e-08
-4.13666e-06
1.44666e-08
-4.13036e-06
1.19239e-08
-4.12205e-06
9.12401e-09
-4.11189e-06
6.44476e-09
-4.09983e-06
3.58728e-09
-4.08604e-06
9.05457e-10
-4.0701e-06
-2.71643e-09
-4.05259e-06
-5.43669e-09
-4.03398e-06
-7.82069e-09
-4.01385e-06
-1.15891e-08
-3.99454e-06
-1.15269e-08
-3.97475e-06
-1.47784e-08
-3.95838e-06
-1.29723e-08
-3.94848e-06
-6.56807e-09
1.62777e-08
-5.65729e-06
-4.6559e-08
-5.66269e-06
1.34813e-08
-5.67789e-06
2.00834e-08
-5.70723e-06
4.21591e-08
-5.741e-06
4.40646e-08
-5.77091e-06
3.07664e-08
-5.79924e-06
2.3723e-08
-5.82277e-06
1.00605e-08
-5.84114e-06
-3.37183e-09
-5.85443e-06
-1.61656e-08
-5.86299e-06
-2.77469e-08
-5.8667e-06
-3.95324e-08
-5.8661e-06
-4.93743e-08
-5.86172e-06
-5.75843e-08
-5.85371e-06
-6.52409e-08
-5.84304e-06
-7.03079e-08
-5.8295e-06
-7.57221e-08
-5.81407e-06
-7.87328e-08
-5.79697e-06
-8.11898e-08
-5.77893e-06
-8.16875e-08
-5.7602e-06
-8.17137e-08
-5.74108e-06
-8.09753e-08
-5.72183e-06
-7.96071e-08
-5.70284e-06
-7.71288e-08
-5.68432e-06
-7.43971e-08
-5.66654e-06
-7.1224e-08
-5.64965e-06
-6.76467e-08
-5.63384e-06
-6.38856e-08
-5.61928e-06
-5.96193e-08
-5.60613e-06
-5.50267e-08
-5.59451e-06
-5.02745e-08
-5.58453e-06
-4.53339e-08
-5.57626e-06
-4.03117e-08
-5.56978e-06
-3.51879e-08
-5.56513e-06
-3.00302e-08
-5.56228e-06
-2.51556e-08
-5.56134e-06
-1.99871e-08
-5.56234e-06
-1.47771e-08
-5.56533e-06
-9.5517e-09
-5.57026e-06
-4.68264e-09
-5.57717e-06
4.48346e-10
-5.58607e-06
5.66142e-09
-5.597e-06
1.08342e-08
-5.61002e-06
1.63166e-08
-5.62508e-06
2.14607e-08
-5.6421e-06
2.64431e-08
-5.66111e-06
3.14319e-08
-5.68201e-06
3.62521e-08
-5.70478e-06
4.10387e-08
-5.72933e-06
4.56583e-08
-5.7556e-06
5.01388e-08
-5.78355e-06
5.46738e-08
-5.81304e-06
5.88408e-08
-5.84393e-06
6.2792e-08
-5.87611e-06
6.65534e-08
-5.90941e-06
6.9995e-08
-5.94369e-06
7.32232e-08
-5.97874e-06
7.60589e-08
-6.01437e-06
7.85633e-08
-6.05046e-06
8.10832e-08
-6.08668e-06
8.28331e-08
-6.12272e-06
8.4084e-08
-6.15836e-06
8.48235e-08
-6.19324e-06
8.4615e-08
-6.22708e-06
8.41579e-08
-6.2596e-06
8.31689e-08
-6.29047e-06
8.15943e-08
-6.3193e-06
7.91061e-08
-6.34582e-06
7.62215e-08
-6.36974e-06
7.28262e-08
-6.39074e-06
6.87678e-08
-6.40857e-06
6.42464e-08
-6.42295e-06
5.91044e-08
-6.43366e-06
5.35388e-08
-6.44056e-06
4.7661e-08
-6.44348e-06
4.14395e-08
-6.44221e-06
3.47261e-08
-6.43679e-06
2.80907e-08
-6.42694e-06
2.07953e-08
-6.4131e-06
1.43878e-08
-6.3947e-06
6.63792e-09
-6.37233e-06
1.74766e-10
-6.34592e-06
-6.68219e-09
-6.31578e-06
-1.3094e-08
-6.28212e-06
-1.92008e-08
-6.24509e-06
-2.50991e-08
-6.2047e-06
-3.12726e-08
-6.16137e-06
-3.68843e-08
-6.11514e-06
-4.2644e-08
-6.06646e-06
-4.77713e-08
-6.0149e-06
-5.42714e-08
-5.96141e-06
-5.89262e-08
-5.9073e-06
-6.19393e-08
-5.85243e-06
-6.6455e-08
-5.80074e-06
-6.32209e-08
-5.75128e-06
-6.42344e-08
-5.71103e-06
-5.32237e-08
-5.6844e-06
-3.31954e-08
1.30387e-08
-7.3072e-06
-8.0878e-08
-7.31345e-06
1.97336e-08
-7.33671e-06
4.33444e-08
-7.38103e-06
8.64809e-08
-7.43373e-06
9.67585e-08
-7.48372e-06
8.07604e-08
-7.53342e-06
7.34185e-08
-7.57857e-06
5.52138e-08
-7.61838e-06
3.64394e-08
-7.65274e-06
1.81962e-08
-7.68192e-06
1.43181e-09
-7.70562e-06
-1.58369e-08
-7.7244e-06
-3.05956e-08
-7.73878e-06
-4.3206e-08
-7.74879e-06
-5.52269e-08
-7.75555e-06
-6.35475e-08
-7.75865e-06
-7.2618e-08
-7.75926e-06
-7.81278e-08
-7.75753e-06
-8.29173e-08
-7.75428e-06
-8.49392e-08
-7.74976e-06
-8.62296e-08
-7.7443e-06
-8.6434e-08
-7.73816e-06
-8.57502e-08
-7.73175e-06
-8.35391e-08
-7.72533e-06
-8.08203e-08
-7.71922e-06
-7.73365e-08
-7.71359e-06
-7.32727e-08
-7.70868e-06
-6.87933e-08
-7.70471e-06
-6.35891e-08
-7.70188e-06
-5.78594e-08
-7.70033e-06
-5.18267e-08
-7.70022e-06
-4.54423e-08
-7.70166e-06
-3.8867e-08
-7.70477e-06
-3.20777e-08
-7.70962e-06
-2.51813e-08
-7.71622e-06
-1.85628e-08
-7.7247e-06
-1.15033e-08
-7.73513e-06
-4.3429e-09
-7.74758e-06
2.89342e-09
-7.76205e-06
9.78719e-09
-7.77862e-06
1.70224e-08
-7.79729e-06
2.43262e-08
-7.81811e-06
3.16592e-08
-7.84116e-06
3.93646e-08
-7.86637e-06
4.66695e-08
-7.89367e-06
5.37476e-08
-7.92307e-06
6.08299e-08
-7.95446e-06
6.7638e-08
-7.9878e-06
7.43766e-08
-8.02297e-06
8.08323e-08
-8.05987e-06
8.70361e-08
-8.09842e-06
9.32308e-08
-8.13843e-06
9.88512e-08
-8.17972e-06
1.04075e-07
-8.22211e-06
1.08944e-07
-8.26535e-06
1.13238e-07
-8.30924e-06
1.17116e-07
-8.35349e-06
1.20303e-07
-8.3978e-06
1.22875e-07
-8.44194e-06
1.25227e-07
-8.48551e-06
1.26396e-07
-8.52806e-06
1.26635e-07
-8.56928e-06
1.26042e-07
-8.6087e-06
1.24044e-07
-8.64595e-06
1.21408e-07
-8.6806e-06
1.17816e-07
-8.71222e-06
1.13208e-07
-8.74028e-06
1.07173e-07
-8.76442e-06
1.00355e-07
-8.78424e-06
9.26501e-08
-8.79932e-06
8.38529e-08
-8.80936e-06
7.42815e-08
-8.81396e-06
6.37055e-08
-8.81288e-06
5.24543e-08
-8.80593e-06
4.07126e-08
-8.79293e-06
2.84452e-08
-8.77362e-06
1.541e-08
-8.74804e-06
2.51261e-09
-8.7159e-06
-1.13467e-08
-8.67782e-06
-2.36942e-08
-8.63311e-06
-3.80643e-08
-8.58261e-06
-5.03301e-08
-8.52625e-06
-6.30381e-08
-8.46452e-06
-7.4831e-08
-8.39772e-06
-8.59957e-08
-8.32617e-06
-9.66455e-08
-8.24995e-06
-1.07493e-07
-8.16976e-06
-1.1708e-07
-8.08575e-06
-1.26647e-07
-7.99867e-06
-1.34854e-07
-7.90816e-06
-1.44779e-07
-7.81566e-06
-1.51429e-07
-7.72321e-06
-1.54393e-07
-7.63112e-06
-1.58544e-07
-7.54487e-06
-1.49466e-07
-7.46405e-06
-1.45052e-07
-7.39832e-06
-1.18956e-07
-7.35347e-06
-7.80515e-08
1.09054e-09
-8.80578e-06
-1.25815e-07
-8.81214e-06
2.60994e-08
-8.84174e-06
7.29405e-08
-8.89725e-06
1.41994e-07
-8.96448e-06
1.63987e-07
-9.03047e-06
1.46748e-07
-9.09751e-06
1.4046e-07
-9.16056e-06
1.18264e-07
-9.21847e-06
9.43493e-08
-9.27102e-06
7.07471e-08
-9.31836e-06
4.87757e-08
-9.36011e-06
2.59134e-08
-9.39668e-06
5.9712e-09
-9.42855e-06
-1.13357e-08
-9.45568e-06
-2.81002e-08
-9.47921e-06
-4.00136e-08
-9.49864e-06
-5.31947e-08
-9.51521e-06
-6.15582e-08
-9.52904e-06
-6.90848e-08
-9.54092e-06
-7.30594e-08
-9.55115e-06
-7.59976e-08
-9.56004e-06
-7.75443e-08
-9.56783e-06
-7.7961e-08
-9.57492e-06
-7.64512e-08
-9.58159e-06
-7.41486e-08
-9.58819e-06
-7.073e-08
-9.59493e-06
-6.65416e-08
-9.6021e-06
-6.16148e-08
-9.60991e-06
-5.5783e-08
-9.61857e-06
-4.92024e-08
-9.62824e-06
-4.21525e-08
-9.63912e-06
-3.45593e-08
-9.65136e-06
-2.6634e-08
-9.66508e-06
-1.8354e-08
-9.68039e-06
-9.86964e-09
-9.69736e-06
-1.59497e-09
-9.71614e-06
7.27507e-09
-9.73683e-06
1.63491e-08
-9.75954e-06
2.56024e-08
-9.78434e-06
3.45897e-08
-9.8113e-06
4.39802e-08
-9.84039e-06
5.34148e-08
-9.87166e-06
6.29345e-08
-9.90513e-06
7.28288e-08
-9.94077e-06
8.23145e-08
-9.97854e-06
9.15158e-08
-1.00184e-05
1.00707e-07
-1.00603e-05
1.09501e-07
-1.01041e-05
1.18169e-07
-1.01497e-05
1.26411e-07
-1.01969e-05
1.34251e-07
-1.02456e-05
1.41966e-07
-1.02956e-05
1.48863e-07
-1.03467e-05
1.55141e-07
-1.03986e-05
1.60838e-07
-1.0451e-05
1.65634e-07
-1.05036e-05
1.69753e-07
-1.05561e-05
1.72793e-07
-1.06081e-05
1.74856e-07
-1.06591e-05
1.76294e-07
-1.07089e-05
1.76114e-07
-1.07567e-05
1.74481e-07
-1.08023e-05
1.71605e-07
-1.0845e-05
1.6682e-07
-1.08845e-05
1.60866e-07
-1.09201e-05
1.53417e-07
-1.09513e-05
1.44425e-07
-1.09776e-05
1.33443e-07
-1.09984e-05
1.21155e-07
-1.10133e-05
1.07524e-07
-1.10217e-05
9.22816e-08
-1.10233e-05
7.59043e-08
-1.10177e-05
5.807e-08
-1.10045e-05
3.92645e-08
-1.09836e-05
1.97724e-08
-1.09546e-05
-4.6032e-10
-1.09175e-05
-2.17348e-08
-1.08723e-05
-4.27173e-08
-1.08186e-05
-6.50084e-08
-1.07573e-05
-8.505e-08
-1.06874e-05
-1.0787e-07
-1.06102e-05
-1.27599e-07
-1.05254e-05
-1.47793e-07
-1.04338e-05
-1.66468e-07
-1.03357e-05
-1.84093e-07
-1.02316e-05
-2.00776e-07
-1.01216e-05
-2.17473e-07
-1.00067e-05
-2.31959e-07
-9.88722e-06
-2.4613e-07
-9.76409e-06
-2.57984e-07
-9.63709e-06
-2.71774e-07
-9.50807e-06
-2.80452e-07
-9.37977e-06
-2.82692e-07
-9.25297e-06
-2.85347e-07
-9.13448e-06
-2.67954e-07
-9.02438e-06
-2.55157e-07
-8.93443e-06
-2.08899e-07
-8.87182e-06
-1.40669e-07
-2.00116e-08
-1.0158e-05
-1.81524e-07
-1.01633e-05
3.13887e-08
-1.01972e-05
1.0681e-07
-1.02604e-05
2.05206e-07
-1.03381e-05
2.41684e-07
-1.04162e-05
2.24836e-07
-1.04967e-05
2.20932e-07
-1.05738e-05
1.95447e-07
-1.06463e-05
1.66829e-07
-1.07138e-05
1.38238e-07
-1.07764e-05
1.1134e-07
-1.08335e-05
8.30797e-08
-1.08856e-05
5.80434e-08
-1.0933e-05
3.6057e-08
-1.09756e-05
1.44491e-08
-1.10144e-05
-1.15365e-09
-1.1049e-05
-1.86463e-08
-1.10805e-05
-3.00109e-08
-1.11091e-05
-4.04632e-08
-1.11356e-05
-4.65917e-08
-1.11602e-05
-5.13924e-08
-1.11832e-05
-5.45076e-08
-1.12049e-05
-5.62875e-08
-1.12256e-05
-5.57583e-08
-1.12456e-05
-5.41465e-08
-1.12653e-05
-5.10588e-08
-1.12848e-05
-4.70153e-08
-1.13045e-05
-4.1877e-08
-1.13247e-05
-3.56617e-08
-1.13454e-05
-2.84667e-08
-1.13669e-05
-2.06137e-08
-1.13895e-05
-1.20082e-08
-1.14132e-05
-2.92398e-09
-1.14382e-05
6.68666e-09
-1.14648e-05
1.66395e-08
-1.14929e-05
2.65054e-08
-1.15227e-05
3.71298e-08
-1.15544e-05
4.80868e-08
-1.15882e-05
5.93438e-08
-1.1624e-05
7.04252e-08
-1.1662e-05
8.19663e-08
-1.17021e-05
9.35094e-08
-1.17444e-05
1.05199e-07
-1.17888e-05
1.17233e-07
-1.18353e-05
1.28872e-07
-1.1884e-05
1.40159e-07
-1.19347e-05
1.51423e-07
-1.19873e-05
1.62134e-07
-1.20418e-05
1.72646e-07
-1.20979e-05
1.82558e-07
-1.21556e-05
1.91882e-07
-1.22145e-05
2.00915e-07
-1.22745e-05
2.08847e-07
-1.23353e-05
2.15884e-07
-1.23965e-05
2.22065e-07
-1.24578e-05
2.26949e-07
-1.25189e-05
2.30831e-07
-1.25793e-05
2.33171e-07
-1.26385e-05
2.34095e-07
-1.26961e-05
2.33875e-07
-1.27515e-05
2.31539e-07
-1.28042e-05
2.27145e-07
-1.28536e-05
2.2102e-07
-1.28992e-05
2.1241e-07
-1.29403e-05
2.01998e-07
-1.29763e-05
1.89456e-07
-1.30067e-05
1.74768e-07
-1.30307e-05
1.57456e-07
-1.30478e-05
1.38222e-07
-1.30574e-05
1.17118e-07
-1.30589e-05
9.38232e-08
-1.3052e-05
6.89749e-08
-1.30361e-05
4.21719e-08
-1.30109e-05
1.40681e-08
-1.29762e-05
-1.49138e-08
-1.29318e-05
-4.47968e-08
-1.28776e-05
-7.5995e-08
-1.28136e-05
-1.06737e-07
-1.27394e-05
-1.39152e-07
-1.2656e-05
-1.68522e-07
-1.25624e-05
-2.01466e-07
-1.24597e-05
-2.30216e-07
-1.23481e-05
-2.59406e-07
-1.22282e-05
-2.86349e-07
-1.21006e-05
-3.1171e-07
-1.19658e-05
-3.35591e-07
-1.18241e-05
-3.59172e-07
-1.16767e-05
-3.79385e-07
-1.1524e-05
-3.98842e-07
-1.13672e-05
-4.14802e-07
-1.12062e-05
-4.32757e-07
-1.10432e-05
-4.43385e-07
-1.08817e-05
-4.44234e-07
-1.07228e-05
-4.44253e-07
-1.05744e-05
-4.16352e-07
-1.04371e-05
-3.92474e-07
-1.03242e-05
-3.21749e-07
-1.02444e-05
-2.20524e-07
-5.06497e-08
-1.14008e-05
-2.4773e-07
-1.14051e-05
3.56265e-08
-1.14427e-05
1.44455e-07
-1.15107e-05
2.73245e-07
-1.15957e-05
3.26625e-07
-1.1683e-05
3.12206e-07
-1.17741e-05
3.1199e-07
-1.18629e-05
2.84205e-07
-1.19475e-05
2.51512e-07
-1.20279e-05
2.18548e-07
-1.21037e-05
1.87165e-07
-1.21746e-05
1.53952e-07
-1.22406e-05
1.24122e-07
-1.23023e-05
9.772e-08
-1.23592e-05
7.1403e-08
-1.24126e-05
5.21941e-08
-1.24616e-05
3.04068e-08
-1.25077e-05
1.60292e-08
-1.25507e-05
2.59326e-09
-1.25915e-05
-5.7961e-09
-1.26304e-05
-1.25484e-08
-1.26675e-05
-1.73561e-08
-1.27032e-05
-2.06419e-08
-1.27377e-05
-2.12681e-08
-1.27713e-05
-2.0533e-08
-1.28043e-05
-1.7996e-08
-1.28371e-05
-1.42978e-08
-1.28698e-05
-9.10741e-09
-1.29028e-05
-2.70496e-09
-1.29362e-05
4.91231e-09
-1.29702e-05
1.33866e-08
-1.3005e-05
2.28481e-08
-1.30409e-05
3.29521e-08
-1.3078e-05
4.37748e-08
-1.31165e-05
5.50982e-08
-1.31565e-05
6.6508e-08
-1.31981e-05
7.88228e-08
-1.32417e-05
9.15972e-08
-1.32871e-05
1.04792e-07
-1.33346e-05
1.1792e-07
-1.33842e-05
1.31551e-07
-1.34358e-05
1.4517e-07
-1.34896e-05
1.58968e-07
-1.35454e-05
1.73027e-07
-1.36033e-05
1.86741e-07
-1.36631e-05
2.00031e-07
-1.3725e-05
2.13262e-07
-1.37886e-05
2.25767e-07
-1.3854e-05
2.37975e-07
-1.39208e-05
2.4937e-07
-1.39888e-05
2.59955e-07
-1.4058e-05
2.70035e-07
-1.41278e-05
2.78686e-07
-1.4198e-05
2.86122e-07
-1.42683e-05
2.9237e-07
-1.43383e-05
2.96864e-07
-1.44074e-05
2.99965e-07
-1.44752e-05
3.00994e-07
-1.45412e-05
3.00084e-07
-1.46047e-05
2.97394e-07
-1.46652e-05
2.92054e-07
-1.47221e-05
2.84017e-07
-1.47747e-05
2.73644e-07
-1.48225e-05
2.60143e-07
-1.48646e-05
2.44124e-07
-1.49004e-05
2.25263e-07
-1.49292e-05
2.03575e-07
-1.49503e-05
1.78597e-07
-1.49631e-05
1.50988e-07
-1.49669e-05
1.2092e-07
-1.49611e-05
8.80259e-08
-1.49453e-05
5.3126e-08
-1.49188e-05
1.57307e-08
-1.48815e-05
-2.32708e-08
-1.48331e-05
-6.33032e-08
-1.47735e-05
-1.0439e-07
-1.47024e-05
-1.47096e-07
-1.46199e-05
-1.89202e-07
-1.45258e-05
-2.33337e-07
-1.44207e-05
-2.7358e-07
-1.4304e-05
-3.18182e-07
-1.41768e-05
-3.57414e-07
-1.40392e-05
-3.96984e-07
-1.38921e-05
-4.33472e-07
-1.37361e-05
-4.67727e-07
-1.35718e-05
-4.99847e-07
-1.33998e-05
-5.31216e-07
-1.32213e-05
-5.57851e-07
-1.3037e-05
-5.83145e-07
-1.28482e-05
-6.03584e-07
-1.26551e-05
-6.25867e-07
-1.24602e-05
-6.38277e-07
-1.22674e-05
-6.3706e-07
-1.20784e-05
-6.33287e-07
-1.19018e-05
-5.92935e-07
-1.17388e-05
-5.55443e-07
-1.1604e-05
-4.56523e-07
-1.15074e-05
-3.17168e-07
-9.10116e-08
-1.25692e-05
-3.23194e-07
-1.25715e-05
3.78506e-08
-1.26117e-05
1.84682e-07
-1.26834e-05
3.44936e-07
-1.27742e-05
4.17397e-07
-1.28695e-05
4.07576e-07
-1.29699e-05
4.12362e-07
-1.3069e-05
3.8327e-07
-1.31647e-05
3.47274e-07
-1.32568e-05
3.10659e-07
-1.3345e-05
2.75349e-07
-1.34288e-05
2.3775e-07
-1.35082e-05
2.03533e-07
-1.35836e-05
1.7305e-07
-1.36544e-05
1.42289e-07
-1.37219e-05
1.19683e-07
-1.37853e-05
9.3739e-08
-1.38457e-05
7.64153e-08
-1.39031e-05
6.00471e-08
-1.39583e-05
4.94061e-08
-1.40115e-05
4.06815e-08
-1.4063e-05
3.41207e-08
-1.41129e-05
2.92341e-08
-1.41615e-05
2.73346e-08
-1.42091e-05
2.70581e-08
-1.4256e-05
2.88942e-08
-1.43024e-05
3.20865e-08
-1.43486e-05
3.71789e-08
-1.4395e-05
4.36076e-08
-1.44415e-05
5.14915e-08
-1.44886e-05
6.04346e-08
-1.45364e-05
7.06143e-08
-1.4585e-05
8.16124e-08
-1.46348e-05
9.3537e-08
-1.46858e-05
1.06116e-07
-1.47383e-05
1.18966e-07
-1.47923e-05
1.32873e-07
-1.48481e-05
1.4736e-07
-1.49057e-05
1.62398e-07
-1.49652e-05
1.77475e-07
-1.50268e-05
1.93105e-07
-1.50903e-05
2.08696e-07
-1.51558e-05
2.24493e-07
-1.52233e-05
2.40453e-07
-1.52926e-05
2.56114e-07
-1.53639e-05
2.71268e-07
-1.54369e-05
2.86305e-07
-1.55116e-05
3.00413e-07
-1.55877e-05
3.14101e-07
-1.5665e-05
3.26732e-07
-1.57434e-05
3.38288e-07
-1.58224e-05
3.49075e-07
-1.59018e-05
3.5807e-07
-1.59812e-05
3.65474e-07
-1.60601e-05
3.71301e-07
-1.61381e-05
3.74861e-07
-1.62147e-05
3.76574e-07
-1.62893e-05
3.75616e-07
-1.63614e-05
3.72134e-07
-1.64301e-05
3.66151e-07
-1.6495e-05
3.56926e-07
-1.65553e-05
3.44296e-07
-1.66103e-05
3.28655e-07
-1.66593e-05
3.09179e-07
-1.67016e-05
2.86399e-07
-1.67363e-05
2.59998e-07
-1.67628e-05
2.30031e-07
-1.67802e-05
1.96047e-07
-1.67879e-05
1.5867e-07
-1.67852e-05
1.18192e-07
-1.67714e-05
7.4219e-08
-1.6746e-05
2.77644e-08
-1.67086e-05
-2.17271e-08
-1.66587e-05
-7.30955e-08
-1.65964e-05
-1.25652e-07
-1.65213e-05
-1.79448e-07
-1.64332e-05
-2.35198e-07
-1.63322e-05
-2.90184e-07
-1.62181e-05
-3.47523e-07
-1.60915e-05
-4.001e-07
-1.5952e-05
-4.57761e-07
-1.58005e-05
-5.08836e-07
-1.56375e-05
-5.60047e-07
-1.54637e-05
-6.07251e-07
-1.528e-05
-6.51447e-07
-1.50871e-05
-6.92728e-07
-1.48857e-05
-7.32648e-07
-1.46772e-05
-7.663e-07
-1.44625e-05
-7.97848e-07
-1.42431e-05
-8.23015e-07
-1.40193e-05
-8.49643e-07
-1.3794e-05
-8.63575e-07
-1.35715e-05
-8.59606e-07
-1.33539e-05
-8.50832e-07
-1.31506e-05
-7.96279e-07
-1.29633e-05
-7.42685e-07
-1.28076e-05
-6.12242e-07
-1.26947e-05
-4.30031e-07
-1.4105e-07
-1.36899e-05
-4.06241e-07
-1.36909e-05
3.89293e-08
-1.37345e-05
2.2827e-07
-1.38086e-05
4.19033e-07
-1.39039e-05
5.12652e-07
-1.40063e-05
5.10032e-07
-1.41151e-05
5.21123e-07
-1.42239e-05
4.92052e-07
-1.43302e-05
4.53627e-07
-1.44338e-05
4.14215e-07
-1.4534e-05
3.75609e-07
-1.46305e-05
3.34238e-07
-1.47231e-05
2.96101e-07
-1.4812e-05
2.61945e-07
-1.48968e-05
2.27072e-07
-1.49784e-05
2.01318e-07
-1.50561e-05
1.71432e-07
-1.5131e-05
1.51274e-07
-1.5203e-05
1.32082e-07
-1.52728e-05
1.19229e-07
-1.53407e-05
1.08544e-07
-1.54068e-05
1.00208e-07
-1.54712e-05
9.36718e-08
-1.55343e-05
9.0445e-08
-1.55963e-05
8.90486e-08
-1.56575e-05
9.00539e-08
-1.5718e-05
9.2613e-08
-1.57783e-05
9.74439e-08
-1.58384e-05
1.03756e-07
-1.58987e-05
1.11767e-07
-1.59593e-05
1.21033e-07
-1.60205e-05
1.31788e-07
-1.60824e-05
1.43539e-07
-1.61453e-05
1.56424e-07
-1.62093e-05
1.70123e-07
-1.62746e-05
1.84279e-07
-1.63414e-05
1.99644e-07
-1.64097e-05
2.15707e-07
-1.64798e-05
2.32445e-07
-1.65516e-05
2.49309e-07
-1.66253e-05
2.66789e-07
-1.67008e-05
2.84217e-07
-1.67782e-05
3.01857e-07
-1.68573e-05
3.19571e-07
-1.69382e-05
3.36995e-07
-1.70207e-05
3.53808e-07
-1.71048e-05
3.70426e-07
-1.71903e-05
3.85891e-07
-1.7277e-05
4.00772e-07
-1.73645e-05
4.14317e-07
-1.74527e-05
4.26486e-07
-1.75413e-05
4.3758e-07
-1.76296e-05
4.46466e-07
-1.77175e-05
4.53341e-07
-1.78044e-05
4.58195e-07
-1.78898e-05
4.60211e-07
-1.79731e-05
4.5987e-07
-1.80536e-05
4.56196e-07
-1.81308e-05
4.49351e-07
-1.82039e-05
4.39247e-07
-1.82722e-05
4.2522e-07
-1.8335e-05
4.07025e-07
-1.83914e-05
3.85077e-07
-1.84407e-05
3.58495e-07
-1.84821e-05
3.27793e-07
-1.85147e-05
2.92635e-07
-1.85378e-05
2.53131e-07
-1.85506e-05
2.08832e-07
-1.85523e-05
1.60333e-07
-1.85422e-05
1.08066e-07
-1.85195e-05
5.15963e-08
-1.84839e-05
-7.8365e-09
-1.84349e-05
-7.08031e-08
-1.8372e-05
-1.35941e-07
-1.82952e-05
-2.02461e-07
-1.82042e-05
-2.70423e-07
-1.80988e-05
-3.40655e-07
-1.7979e-05
-4.09947e-07
-1.78447e-05
-4.81848e-07
-1.76967e-05
-5.48122e-07
-1.75343e-05
-6.20095e-07
-1.73589e-05
-6.84268e-07
-1.71707e-05
-7.48254e-07
-1.69707e-05
-8.07233e-07
-1.67599e-05
-8.62298e-07
-1.6539e-05
-9.13548e-07
-1.6309e-05
-9.62642e-07
-1.60715e-05
-1.00382e-06
-1.58275e-05
-1.04192e-06
-1.55785e-05
-1.07196e-06
-1.53253e-05
-1.10283e-06
-1.5071e-05
-1.11792e-06
-1.48201e-05
-1.11049e-06
-1.45754e-05
-1.09549e-06
-1.43466e-05
-1.02511e-06
-1.41363e-05
-9.5294e-07
-1.39606e-05
-7.87937e-07
-1.38322e-05
-5.58427e-07
-2.00393e-07
-1.47822e-05
-4.95026e-07
-1.47815e-05
3.82169e-08
-1.48277e-05
2.74563e-07
-1.49046e-05
4.95909e-07
-1.50046e-05
6.12639e-07
-1.51144e-05
6.19784e-07
-1.52317e-05
6.3848e-07
-1.53503e-05
6.1061e-07
-1.54673e-05
5.70696e-07
-1.55825e-05
5.29338e-07
-1.5695e-05
4.8809e-07
-1.58043e-05
4.43633e-07
-1.59103e-05
4.02071e-07
-1.6013e-05
3.64642e-07
-1.6112e-05
3.26025e-07
-1.6208e-05
2.97351e-07
-1.63003e-05
2.63776e-07
-1.639e-05
2.40905e-07
-1.64769e-05
2.19013e-07
-1.65617e-05
2.03998e-07
-1.66445e-05
1.91378e-07
-1.67256e-05
1.81262e-07
-1.68049e-05
1.73045e-07
-1.68829e-05
1.6842e-07
-1.69597e-05
1.65814e-07
-1.70355e-05
1.65878e-07
-1.71106e-05
1.67672e-07
-1.71852e-05
1.72112e-07
-1.72596e-05
1.78167e-07
-1.7334e-05
1.86143e-07
-1.74086e-05
1.95572e-07
-1.74835e-05
2.06741e-07
-1.7559e-05
2.19083e-07
-1.76354e-05
2.32757e-07
-1.77127e-05
2.47407e-07
-1.77911e-05
2.62704e-07
-1.78708e-05
2.7935e-07
-1.79519e-05
2.96818e-07
-1.80345e-05
3.15078e-07
-1.81188e-05
3.33543e-07
-1.82047e-05
3.52686e-07
-1.82922e-05
3.71753e-07
-1.83814e-05
3.91026e-07
-1.84721e-05
4.10264e-07
-1.85643e-05
4.29203e-07
-1.86579e-05
4.47416e-07
-1.87528e-05
4.65323e-07
-1.88487e-05
4.81827e-07
-1.89455e-05
4.97546e-07
-1.90428e-05
5.1162e-07
-1.91403e-05
5.23972e-07
-1.92376e-05
5.34902e-07
-1.93343e-05
5.43159e-07
-1.94299e-05
5.48946e-07
-1.95239e-05
5.52206e-07
-1.96157e-05
5.52021e-07
-1.97048e-05
5.48898e-07
-1.97903e-05
5.41736e-07
-1.98716e-05
5.30694e-07
-1.9948e-05
5.15573e-07
-2.00185e-05
4.95797e-07
-2.00826e-05
4.71044e-07
-2.01392e-05
4.41731e-07
-2.01877e-05
4.06951e-07
-2.0227e-05
3.67173e-07
-2.02565e-05
3.22068e-07
-2.02751e-05
2.71784e-07
-2.02822e-05
2.15906e-07
-2.02769e-05
1.54991e-07
-2.02584e-05
8.96013e-08
-2.02261e-05
1.93012e-08
-2.01795e-05
-5.4421e-08
-2.01181e-05
-1.32193e-07
-2.00416e-05
-2.12449e-07
-1.99498e-05
-2.94318e-07
-1.98424e-05
-3.77815e-07
-1.97192e-05
-4.6386e-07
-1.95803e-05
-5.4877e-07
-1.94257e-05
-6.36473e-07
-1.92561e-05
-7.17696e-07
-1.90711e-05
-8.051e-07
-1.88719e-05
-8.83508e-07
-1.86589e-05
-9.61282e-07
-1.84331e-05
-1.03298e-06
-1.81957e-05
-1.09974e-06
-1.79476e-05
-1.16166e-06
-1.76898e-05
-1.22043e-06
-1.74241e-05
-1.26951e-06
-1.71517e-05
-1.31435e-06
-1.68743e-05
-1.34934e-06
-1.65929e-05
-1.38424e-06
-1.63107e-05
-1.40009e-06
-1.60327e-05
-1.3885e-06
-1.57622e-05
-1.36596e-06
-1.55091e-05
-1.27828e-06
-1.5277e-05
-1.18502e-06
-1.50823e-05
-9.8265e-07
-1.49391e-05
-7.01602e-07
-2.68527e-07
-1.58614e-05
-5.86973e-07
-1.58596e-05
3.64176e-08
-1.59094e-05
3.24356e-07
-1.59888e-05
5.75298e-07
-1.60932e-05
7.17095e-07
-1.62103e-05
7.36836e-07
-1.63362e-05
7.64434e-07
-1.64648e-05
7.39216e-07
-1.65929e-05
6.98802e-07
-1.672e-05
6.56403e-07
-1.68451e-05
6.13185e-07
-1.69678e-05
5.66318e-07
-1.70875e-05
5.21831e-07
-1.72044e-05
4.81545e-07
-1.7318e-05
4.39554e-07
-1.74288e-05
4.08199e-07
-1.75362e-05
3.71194e-07
-1.76411e-05
3.45723e-07
-1.77433e-05
3.21252e-07
-1.78434e-05
3.041e-07
-1.79416e-05
2.89575e-07
-1.8038e-05
2.77665e-07
-1.81327e-05
2.67745e-07
-1.82259e-05
2.6167e-07
-1.83179e-05
2.57759e-07
-1.84088e-05
2.56757e-07
-1.84988e-05
2.57664e-07
-1.85882e-05
2.61544e-07
-1.86772e-05
2.67181e-07
-1.8766e-05
2.74947e-07
-1.88548e-05
2.84357e-07
-1.89438e-05
2.95748e-07
-1.90332e-05
3.08475e-07
-1.91232e-05
3.22739e-07
-1.92139e-05
3.38138e-07
-1.93056e-05
3.54377e-07
-1.93983e-05
3.72092e-07
-1.94922e-05
3.90742e-07
-1.95875e-05
4.10294e-07
-1.9684e-05
4.30116e-07
-1.9782e-05
4.50674e-07
-1.98814e-05
4.71127e-07
-1.99821e-05
4.91762e-07
-2.00841e-05
5.12249e-07
-2.01873e-05
5.32397e-07
-2.02916e-05
5.51685e-07
-2.03968e-05
5.70515e-07
-2.05026e-05
5.87681e-07
-2.06089e-05
6.03816e-07
-2.07152e-05
6.17963e-07
-2.08213e-05
6.30012e-07
-2.09266e-05
6.40227e-07
-2.10307e-05
6.47286e-07
-2.11331e-05
6.5136e-07
-2.12333e-05
6.52356e-07
-2.13305e-05
6.49252e-07
-2.14242e-05
6.42579e-07
-2.15136e-05
6.3112e-07
-2.15979e-05
6.15013e-07
-2.16763e-05
5.93977e-07
-2.1748e-05
5.6749e-07
-2.18121e-05
5.35175e-07
-2.18679e-05
4.9745e-07
-2.19143e-05
4.53355e-07
-2.19505e-05
4.03371e-07
-2.19756e-05
3.47158e-07
-2.19887e-05
2.84903e-07
-2.1989e-05
2.16239e-07
-2.19757e-05
1.4167e-07
-2.1948e-05
6.19064e-08
-2.19052e-05
-2.34714e-08
-2.18469e-05
-1.12727e-07