/*--------------------------------*- C++ -*----------------------------------*\
| =========                 |                                                 |
| \\      /  F ield         | OpenFOAM: The Open Source CFD Toolbox           |
|  \\    /   O peration     | Version:  2112                                  |
|   \\  /    A nd           | Website:  www.openfoam.com                      |
|    \\/     M anipulation  |                                                 |
\*---------------------------------------------------------------------------*/
FoamFile
{
    version     2.0;
    format      ascii;
    arch        "LSB;label=32;scalar=64";
    class       volVectorField;
    location    "2858";
    object      U;
}
// * * * * * * * * * * * * * * * * * * * * * * * * * * * * * * * * * * * * * //

dimensions      [0 1 -1 0 0 0 0];

internalField   nonuniform List<vector> 
14751
(
(0.00184427 6.62384e-08 0)
(0.00184058 -7.85125e-08 0)
(0.00184311 1.01581e-07 -2.5888e-26)
(0.00183623 1.08621e-07 2.59028e-26)
(0.00183055 1.83959e-07 -4.7604e-26)
(0.00181922 2.34067e-07 7.92404e-25)
(0.00180539 2.75591e-07 0)
(0.00178886 3.24144e-07 -1.02597e-26)
(0.00176931 3.59927e-07 5.58273e-28)
(0.00174748 3.9026e-07 -8.62059e-27)
(0.0017236 4.1179e-07 1.07694e-27)
(0.00169797 4.29553e-07 1.09062e-24)
(0.00167078 4.39474e-07 0)
(0.00164266 4.42139e-07 -2.86502e-26)
(0.00161379 4.40706e-07 -8.59118e-25)
(0.00158456 4.29227e-07 -4.16158e-25)
(0.00155526 4.16126e-07 2.36203e-26)
(0.00152602 3.94318e-07 -2.36438e-26)
(0.00149719 3.72179e-07 -3.439e-25)
(0.00146889 3.45623e-07 -3.23758e-25)
(0.00144143 3.19575e-07 0)
(0.00141479 2.93337e-07 -3.07107e-25)
(0.00138912 2.68568e-07 1.76566e-26)
(0.00136455 2.44537e-07 -1.61189e-26)
(0.00134118 2.22464e-07 1.61325e-26)
(0.00131897 2.01411e-07 4.8906e-25)
(0.00129795 1.82572e-07 0)
(0.00127813 1.64415e-07 1.16612e-25)
(0.00125951 1.48209e-07 0)
(0.00124214 1.33042e-07 0)
(0.001226 1.19271e-07 0)
(0.00121106 1.06575e-07 0)
(0.00119731 9.51697e-08 0)
(0.00118472 8.47095e-08 7.5425e-27)
(0.00117329 7.51966e-08 -7.54538e-27)
(0.00116293 6.6175e-08 2.59582e-25)
(0.0011536 5.83944e-08 -2.68028e-25)
(0.00114533 5.12636e-08 -2.69649e-25)
(0.00113809 4.46643e-08 0)
(0.00113181 3.77533e-08 0)
(0.00112643 3.15996e-08 2.43657e-27)
(0.00112204 2.7483e-08 -2.43678e-27)
(0.00111858 2.25305e-08 -2.66631e-27)
(0.00111606 1.90885e-08 2.66653e-27)
(0.0011145 1.47914e-08 1.46152e-27)
(0.0011138 1.10485e-08 -1.46161e-27)
(0.00111398 7.31981e-09 -8.00934e-28)
(0.00111501 4.15647e-09 -2.08904e-25)
(0.00111689 8.43959e-10 0)
(0.00111961 -2.08986e-09 2.28959e-28)
(0.00112315 -4.77297e-09 -2.28945e-28)
(0.00112752 -7.14614e-09 -4.9892e-28)
(0.00113274 -9.54712e-09 4.98876e-28)
(0.00113874 -1.18173e-08 1.08329e-27)
(0.00114554 -1.40439e-08 2.84035e-25)
(0.00115314 -1.57963e-08 -4.59651e-27)
(0.00116151 -1.77918e-08 2.34233e-27)
(0.00117065 -1.93398e-08 0)
(0.00118053 -2.0791e-08 0)
(0.00119118 -2.07747e-08 0)
(0.00120261 -2.1974e-08 -1.40748e-24)
(0.00121474 -2.13069e-08 -2.8964e-24)
(0.00122759 -2.29365e-08 -1.15387e-26)
(0.00124105 -2.48507e-08 -1.22585e-26)
(0.00125506 -2.49967e-08 -1.29669e-26)
(0.00126968 -2.51117e-08 8.69218e-25)
(0.00128487 -2.53156e-08 -8.65978e-25)
(0.00130056 -2.59401e-08 0)
(0.00131669 -2.5746e-08 2.79065e-26)
(0.0013333 -2.58329e-08 -2.7892e-26)
(0.0013503 -2.57324e-08 0)
(0.00136768 -2.62411e-08 0)
(0.00138541 -2.66321e-08 0)
(0.00140341 -2.75489e-08 0)
(0.00142169 -2.91337e-08 1.24222e-25)
(0.00144021 -3.15645e-08 -6.35535e-26)
(0.00145893 -3.40736e-08 -1.28876e-25)
(0.00147786 -3.89847e-08 1.29594e-25)
(0.00149693 -4.23769e-08 -1.30372e-25)
(0.00151617 -5.17936e-08 -6.58887e-26)
(0.00153557 -5.77252e-08 1.33713e-25)
(0.00155504 -7.07794e-08 0)
(0.00157472 -8.27319e-08 0)
(0.00159443 -9.84756e-08 -6.8274e-26)
(0.00161426 -1.14552e-07 6.82083e-26)
(0.00163415 -1.32242e-07 0)
(0.00165403 -1.48328e-07 0)
(0.00167382 -1.662e-07 0)
(0.00169343 -1.80316e-07 0)
(0.0017128 -1.97936e-07 -2.18635e-24)
(0.00173169 -2.06969e-07 1.68781e-26)
(0.00174984 -2.1482e-07 0)
(0.00176747 -2.234e-07 1.63689e-26)
(0.00178364 -2.10635e-07 8.13736e-26)
(0.00179856 -2.17348e-07 -4.75585e-26)
(0.00181209 -1.96437e-07 1.5827e-26)
(0.00182248 -1.72223e-07 4.98593e-25)
(0.00182889 -8.48275e-08 -7.60625e-27)
(0.00184018 -2.24098e-07 -9.345e-25)
(0.00546144 3.40128e-07 -4.14003e-23)
(0.00544721 -1.11456e-07 0)
(0.00544757 5.77015e-07 -7.51327e-23)
(0.00542845 7.90211e-07 -2.38227e-24)
(0.00541179 1.15871e-06 1.3928e-22)
(0.00538246 1.52722e-06 2.27844e-24)
(0.00534656 1.77504e-06 1.05415e-24)
(0.00530386 2.05614e-06 0)
(0.00525351 2.28867e-06 -1.26567e-22)
(0.00519729 2.48809e-06 7.28229e-24)
(0.00513574 2.64976e-06 0)
(0.00506966 2.78463e-06 -1.58138e-24)
(0.00499961 2.88231e-06 0)
(0.00492703 2.94322e-06 0)
(0.00485248 2.98105e-06 7.57105e-23)
(0.00477689 2.97616e-06 1.0913e-23)
(0.00470106 2.96376e-06 -7.49157e-23)
(0.00462532 2.9145e-06 -1.70925e-23)
(0.00455058 2.85685e-06 1.76864e-23)
(0.00447717 2.77582e-06 4.90622e-25)
(0.00440587 2.68286e-06 7.23414e-24)
(0.0043367 2.57938e-06 -6.82145e-24)
(0.00427006 2.46837e-06 0)
(0.00420624 2.34992e-06 0)
(0.00414558 2.22733e-06 0)
(0.00408795 2.10015e-06 -7.53885e-25)
(0.00403352 1.97493e-06 4.12505e-23)
(0.0039823 1.84649e-06 5.18931e-23)
(0.0039343 1.7219e-06 0)
(0.00388965 1.59737e-06 -1.99215e-23)
(0.00384831 1.47584e-06 -2.56814e-23)
(0.00381027 1.35658e-06 2.30387e-23)
(0.00377546 1.24118e-06 0)
(0.00374383 1.12844e-06 -3.02231e-24)
(0.00371535 1.01912e-06 3.06492e-23)
(0.00368986 9.12735e-07 -5.11363e-24)
(0.00366726 8.11334e-07 2.01603e-24)
(0.00364759 7.12152e-07 1.39916e-23)
(0.00363079 6.15818e-07 0)
(0.0036167 5.20593e-07 0)
(0.00360518 4.28865e-07 -1.96606e-24)
(0.00359639 3.43279e-07 1.96736e-24)
(0.00359025 2.56506e-07 -7.3412e-24)
(0.00358677 1.74354e-07 -1.07729e-24)
(0.00358597 9.04945e-08 0)
(0.00358763 9.91221e-09 0)
(0.00359177 -7.04652e-08 0)
(0.00359834 -1.48227e-07 2.97905e-24)
(0.0036073 -2.26122e-07 0)
(0.00361864 -3.0198e-07 0)
(0.00363228 -3.76643e-07 3.86127e-25)
(0.00364827 -4.50549e-07 -3.85926e-25)
(0.00366658 -5.23615e-07 0)
(0.00368709 -5.95575e-07 6.84622e-24)
(0.00370982 -6.67001e-07 -1.4688e-23)
(0.00373469 -7.36245e-07 -1.88595e-24)
(0.00376168 -8.05783e-07 1.52874e-23)
(0.00379074 -8.72489e-07 1.95411e-24)
(0.00382176 -9.37958e-07 -2.87791e-23)
(0.00385481 -9.99252e-07 4.18958e-24)
(0.00388986 -1.06202e-06 6.67811e-24)
(0.00392668 -1.11802e-06 7.31485e-26)
(0.0039653 -1.17833e-06 0)
(0.00400538 -1.23542e-06 9.77677e-24)
(0.00404679 -1.28574e-06 -9.75848e-24)
(0.0040896 -1.33447e-06 -1.2704e-24)
(0.00413366 -1.3804e-06 1.30234e-24)
(0.00417878 -1.42362e-06 0)
(0.00422478 -1.46141e-06 0)
(0.00427166 -1.49718e-06 8.90955e-23)
(0.00431923 -1.5284e-06 0)
(0.00436737 -1.55809e-06 -2.33668e-23)
(0.00441597 -1.58314e-06 2.33022e-23)
(0.00446485 -1.60601e-06 0)
(0.00451393 -1.62757e-06 -1.89463e-25)
(0.00456313 -1.64761e-06 0)
(0.00461231 -1.66396e-06 1.94215e-25)
(0.00466142 -1.68382e-06 0)
(0.00471034 -1.69471e-06 2.02962e-22)
(0.00475907 -1.72054e-06 0)
(0.00480756 -1.72643e-06 -2.00782e-25)
(0.00485557 -1.75163e-06 -2.06591e-22)
(0.00490343 -1.76584e-06 2.07283e-22)
(0.00495073 -1.78562e-06 -2.07667e-22)
(0.0049976 -1.80219e-06 0)
(0.00504392 -1.81846e-06 0)
(0.0050895 -1.82463e-06 0)
(0.00513408 -1.83311e-06 -2.05891e-22)
(0.00517748 -1.82518e-06 -2.0456e-22)
(0.00521946 -1.82165e-06 3.16973e-24)
(0.00525946 -1.77636e-06 6.2478e-24)
(0.0052969 -1.7255e-06 -6.22264e-24)
(0.00533207 -1.66707e-06 7.58442e-25)
(0.00536325 -1.52635e-06 -9.43351e-25)
(0.00539068 -1.44554e-06 -1.94345e-22)
(0.00541413 -1.2084e-06 5.82284e-24)
(0.00542993 -9.29539e-07 -1.81029e-22)
(0.00543975 -6.49835e-07 0)
(0.00545749 -1.01919e-06 1.33801e-24)
(0.00904673 1.02621e-06 1.17606e-22)
(0.00901852 3.37423e-07 2.34142e-24)
(0.00901236 1.65655e-06 7.57128e-23)
(0.00898478 2.23022e-06 2.88235e-22)
(0.00896145 3.05434e-06 -1.53756e-22)
(0.00892247 3.97401e-06 8.3946e-24)
(0.00887397 4.64873e-06 0)
(0.00881603 5.38765e-06 0)
(0.00874726 6.03527e-06 -3.5672e-22)
(0.00866991 6.59927e-06 1.3974e-23)
(0.00858477 7.07503e-06 3.86928e-22)
(0.00849306 7.47319e-06 3.91339e-22)
(0.00839559 7.78673e-06 1.4679e-24)
(0.00829427 8.00859e-06 3.70096e-22)
(0.00819001 8.16163e-06 -4.29577e-22)
(0.00808405 8.21164e-06 1.99669e-23)
(0.00797759 8.22433e-06 -1.83162e-22)
(0.0078711 8.14511e-06 -3.5488e-23)
(0.00776595 8.02887e-06 0)
(0.00766262 7.85264e-06 -2.30546e-22)
(0.0075622 7.63233e-06 2.1782e-22)
(0.00746483 7.37861e-06 0)
(0.00737107 7.09643e-06 0)
(0.00728134 6.79101e-06 0)
(0.00719611 6.46376e-06 9.8013e-23)
(0.00711533 6.11862e-06 0)
(0.00703923 5.77176e-06 5.79571e-23)
(0.00696789 5.41089e-06 -5.72194e-23)
(0.00690132 5.05566e-06 9.04506e-23)
(0.00683971 4.69625e-06 2.25393e-23)
(0.00678305 4.34042e-06 2.82933e-23)
(0.00673132 3.98736e-06 -2.85361e-23)
(0.00668445 3.64097e-06 -9.87105e-23)
(0.0066424 3.29958e-06 1.18746e-23)
(0.00660512 2.96538e-06 -3.03643e-23)
(0.00657241 2.63697e-06 -6.38153e-24)
(0.00654414 2.3205e-06 3.08429e-24)
(0.00652037 2.00875e-06 -1.01779e-23)
(0.00650099 1.70427e-06 0)
(0.00648585 1.4032e-06 2.9293e-23)
(0.00647473 1.11222e-06 3.91119e-24)
(0.00646784 8.31564e-07 -3.91364e-24)
(0.00646505 5.50283e-07 8.37194e-24)
(0.00646637 2.79272e-07 0)
(0.00647183 4.89017e-09 -1.83493e-23)
(0.00648114 -2.6077e-07 1.22857e-24)
(0.00649431 -5.25031e-07 -1.22793e-24)
(0.00651128 -7.82961e-07 -1.95539e-24)
(0.00653195 -1.03975e-06 4.82063e-24)
(0.0065563 -1.29123e-06 3.62498e-25)
(0.00658421 -1.5392e-06 -6.16828e-24)
(0.00661569 -1.78433e-06 0)
(0.0066507 -2.02632e-06 1.65881e-24)
(0.00668904 -2.26394e-06 -1.18669e-23)
(0.00673068 -2.49849e-06 1.74959e-23)
(0.0067755 -2.72675e-06 6.20619e-23)
(0.00682341 -2.95278e-06 -1.11288e-23)
(0.00687428 -3.17062e-06 -7.68793e-24)
(0.00692794 -3.38321e-06 4.06414e-23)
(0.00698439 -3.58493e-06 1.67343e-23)
(0.00704355 -3.78599e-06 1.38406e-22)
(0.00710505 -3.96958e-06 -1.42041e-22)
(0.00716879 -4.15357e-06 -2.76057e-23)
(0.00723434 -4.32596e-06 -1.3202e-22)
(0.00730142 -4.47981e-06 -1.54557e-22)
(0.00737003 -4.62591e-06 -1.78538e-22)
(0.00743988 -4.75973e-06 4.05594e-23)
(0.00751066 -4.88173e-06 -2.04777e-23)
(0.00758202 -4.98591e-06 3.38923e-22)
(0.00765388 -5.07995e-06 -4.27305e-23)
(0.00772593 -5.15803e-06 -8.80275e-23)
(0.00779793 -5.22584e-06 4.4322e-23)
(0.00786963 -5.27753e-06 -4.59331e-23)
(0.00794076 -5.31815e-06 9.23353e-23)
(0.00801115 -5.34965e-06 -4.63954e-23)
(0.00808063 -5.37171e-06 0)
(0.00814897 -5.38065e-06 3.83001e-22)
(0.00821603 -5.39001e-06 -7.73245e-22)
(0.00828167 -5.37797e-06 5.84615e-22)
(0.00834579 -5.38605e-06 7.84741e-22)
(0.00840838 -5.35235e-06 -9.90393e-23)
(0.00846901 -5.34856e-06 2.96577e-22)
(0.00852817 -5.31984e-06 -1.98478e-22)
(0.00858531 -5.2948e-06 9.93296e-22)
(0.00864063 -5.25636e-06 8.43856e-22)
(0.00869394 -5.20773e-06 -8.41879e-22)
(0.00874499 -5.13024e-06 0)
(0.00879342 -5.04637e-06 1.47252e-22)
(0.00883905 -4.91908e-06 2.43585e-22)
(0.00888147 -4.78295e-06 -7.48099e-22)
(0.00892003 -4.55234e-06 -7.87402e-22)
(0.00895396 -4.29118e-06 5.85453e-24)
(0.00898363 -4.00096e-06 -7.47692e-22)
(0.00900745 -3.55069e-06 0)
(0.00902557 -3.18732e-06 1.89782e-22)
(0.0090383 -2.51711e-06 -1.10289e-23)
(0.00904195 -1.82473e-06 1.68089e-22)
(0.00904202 -1.25117e-06 2.63139e-24)
(0.00905104 -1.71876e-06 2.534e-24)
(0.0124456 2.27274e-06 -7.05345e-23)
(0.0124014 1.75669e-06 0)
(0.0123847 3.79672e-06 -5.30275e-22)
(0.012349 5.02142e-06 -2.63785e-22)
(0.0123193 6.4865e-06 3.4244e-25)
(0.0122737 8.16058e-06 9.53308e-22)
(0.0122169 9.49867e-06 0)
(0.0121493 1.08938e-05 0)
(0.0120691 1.21532e-05 1.23495e-21)
(0.0119788 1.32528e-05 2.37305e-23)
(0.0118793 1.41922e-05 3.242e-22)
(0.0117722 1.49734e-05 -3.49055e-22)
(0.0116585 1.5601e-05 6.83185e-22)
(0.0115403 1.60539e-05 -3.12095e-22)
(0.0114188 1.63659e-05 2.94071e-22)
(0.0112954 1.64948e-05 -5.54046e-22)
(0.0111716 1.65267e-05 2.60922e-22)
(0.0110479 1.6395e-05 -5.21715e-22)
(0.010926 1.61732e-05 2.99625e-23)
(0.0108064 1.58397e-05 2.46094e-22)
(0.0106903 1.54111e-05 -2.6008e-22)
(0.0105781 1.49126e-05 2.54245e-23)
(0.0104704 1.43518e-05 -2.30704e-23)
(0.0103675 1.37424e-05 2.31704e-23)
(0.0102702 1.30825e-05 -6.58422e-23)
(0.0101783 1.23858e-05 -2.15379e-23)
(0.0100922 1.16768e-05 -9.2855e-23)
(0.010012 1.0938e-05 1.62559e-22)
(0.0099377 1.02042e-05 -8.02056e-23)
(0.00986951 9.45954e-06 -1.49959e-22)
(0.00980742 8.71761e-06 1.70482e-22)
(0.00975141 7.97838e-06 -1.00823e-23)
(0.00970146 7.24852e-06 8.21688e-23)
(0.00965748 6.52712e-06 0)
(0.00961942 5.81785e-06 8.60515e-23)
(0.00958708 5.11752e-06 5.63277e-24)
(0.00956033 4.43937e-06 1.9737e-25)
(0.00953922 3.77049e-06 8.31967e-23)
(0.00952361 3.11551e-06 1.04959e-22)
(0.00951334 2.46745e-06 -7.72864e-23)
(0.00950821 1.84088e-06 -3.43652e-24)
(0.00950834 1.22892e-06 3.43483e-24)
(0.00951365 6.17212e-07 0)
(0.0095241 2.44271e-08 0)
(0.00953972 -5.73022e-07 1.60512e-23)
(0.00956024 -1.15351e-06 0)
(0.0095856 -1.72894e-06 -3.50864e-23)
(0.00961573 -2.29212e-06 0)
(0.00965049 -2.85003e-06 -4.78458e-24)
(0.00968984 -3.39695e-06 -1.55999e-25)
(0.00973361 -3.93512e-06 6.53353e-24)
(0.00978175 -4.46466e-06 -4.09476e-24)
(0.00983419 -4.98629e-06 2.76159e-24)
(0.00989069 -5.4962e-06 0)
(0.00995113 -5.99654e-06 6.2082e-24)
(0.0100153 -6.48221e-06 -6.31292e-23)
(0.0100832 -6.95799e-06 6.41742e-24)
(0.0101544 -7.41562e-06 0)
(0.0102288 -7.85821e-06 9.7681e-23)
(0.0103062 -8.27593e-06 8.66603e-23)
(0.0103865 -8.68617e-06 -1.04514e-22)
(0.0104692 -9.05997e-06 1.07146e-22)
(0.0105541 -9.42352e-06 -2.53001e-22)
(0.0106407 -9.76092e-06 1.45719e-22)
(0.0107286 -1.00582e-05 1.33164e-22)
(0.0108177 -1.0334e-05 1.01919e-22)
(0.0109075 -1.05794e-05 3.44804e-23)
(0.0109977 -1.07967e-05 -3.61834e-23)
(0.0110877 -1.0974e-05 3.6505e-22)
(0.0111774 -1.11254e-05 -6.32833e-22)
(0.0112663 -1.12415e-05 -3.83685e-23)
(0.0113542 -1.13305e-05 3.8247e-23)
(0.0114406 -1.13849e-05 -7.933e-23)
(0.0115252 -1.14125e-05 7.90833e-23)
(0.0116077 -1.14169e-05 -8.16255e-23)
(0.011688 -1.13981e-05 8.13761e-23)
(0.0117656 -1.13512e-05 -1.07975e-21)
(0.0118404 -1.12957e-05 1.3414e-21)
(0.0119122 -1.12049e-05 -1.94863e-21)
(0.0119809 -1.11309e-05 -6.83191e-22)
(0.0120463 -1.09944e-05 -1.37572e-21)
(0.0121081 -1.08873e-05 -1.3834e-21)
(0.0121666 -1.0743e-05 1.38884e-21)
(0.0122215 -1.05954e-05 -6.96196e-22)
(0.0122727 -1.04183e-05 6.96888e-22)
(0.0123203 -1.02132e-05 6.9661e-22)
(0.0123637 -9.95417e-06 -1.3903e-21)
(0.0124027 -9.66891e-06 -1.38514e-21)
(0.0124371 -9.30382e-06 -4.29576e-23)
(0.0124663 -8.90067e-06 7.69139e-22)
(0.0124898 -8.34486e-06 6.34782e-22)
(0.0125066 -7.71239e-06 0)
(0.0125174 -7.0164e-06 1.98015e-21)
(0.0125209 -6.08137e-06 -8.80123e-24)
(0.0125174 -5.21873e-06 1.00578e-23)
(0.0125081 -3.93658e-06 9.67806e-24)
(0.0124905 -2.65634e-06 -9.66908e-24)
(0.0124725 -1.59425e-06 1.12614e-27)
(0.0124639 -1.82286e-06 -1.14102e-24)
(0.015397 4.25228e-06 -7.2416e-27)
(0.0153375 4.37099e-06 3.60752e-24)
(0.015307 7.196e-06 -3.63482e-24)
(0.0152607 9.31913e-06 0)
(0.0152208 1.15674e-05 -8.39632e-22)
(0.0151657 1.41192e-05 -8.04678e-22)
(0.0150985 1.62949e-05 0)
(0.0150203 1.84684e-05 0)
(0.014929 2.04585e-05 -6.97217e-22)
(0.0148271 2.21974e-05 -6.81248e-22)
(0.0147156 2.36918e-05 -6.05383e-22)
(0.0145961 2.49216e-05 0)
(0.0144701 2.59074e-05 -1.11242e-21)
(0.0143397 2.66147e-05 0)
(0.0142063 2.70876e-05 -4.92036e-22)
(0.0140714 2.72848e-05 4.62425e-22)
(0.0139364 2.73008e-05 3.81959e-22)
(0.0138022 2.70734e-05 4.61503e-22)
(0.0136704 2.66836e-05 3.84835e-22)
(0.0135417 2.61208e-05 0)
(0.0134172 2.53998e-05 3.43377e-22)
(0.0132972 2.45617e-05 0)
(0.0131826 2.36184e-05 -3.10377e-22)
(0.0130736 2.25935e-05 -2.9708e-22)
(0.0129709 2.14837e-05 1.75628e-23)
(0.0128745 2.03142e-05 -5.39862e-25)
(0.0127847 1.91159e-05 -1.70823e-23)
(0.0127016 1.78705e-05 1.32183e-22)
(0.0126252 1.66263e-05 1.62573e-23)
(0.0125558 1.53639e-05 1.13468e-22)
(0.0124933 1.41026e-05 -1.3802e-22)
(0.0124376 1.28441e-05 8.15029e-24)
(0.0123888 1.15978e-05 8.36968e-24)
(0.0123467 1.03648e-05 -8.3706e-24)
(0.0123113 9.15031e-06 -6.92476e-23)
(0.0122824 7.94931e-06 -1.42498e-22)
(0.0122599 6.78258e-06 0)
(0.0122437 5.63305e-06 -8.10888e-23)
(0.0122337 4.50593e-06 -7.4323e-23)
(0.0122298 3.38927e-06 3.59352e-23)
(0.0122319 2.30435e-06 5.25521e-24)
(0.0122399 1.23994e-06 -5.72958e-24)
(0.0122538 1.81962e-07 5.71958e-24)
(0.0122736 -8.46647e-07 0)
(0.0122992 -1.87838e-06 0)
(0.0123304 -2.88283e-06 0)
(0.012367 -3.87513e-06 2.78721e-23)
(0.012409 -4.84691e-06 0)
(0.0124563 -5.80558e-06 -1.56688e-23)
(0.0125087 -6.74486e-06 4.84079e-25)
(0.012566 -7.66653e-06 -1.05391e-24)
(0.0126282 -8.56957e-06 -1.14247e-24)
(0.0126952 -9.45628e-06 -2.37377e-24)
(0.0127666 -1.03196e-05 4.54907e-24)
(0.0128423 -1.11619e-05 7.71165e-23)
(0.0129221 -1.19767e-05 0)
(0.0130057 -1.27681e-05 1.05547e-23)
(0.013093 -1.35265e-05 3.92281e-25)
(0.0131836 -1.42538e-05 -9.95599e-23)
(0.0132772 -1.49361e-05 -1.02825e-22)
(0.0133737 -1.55971e-05 1.20045e-23)
(0.0134725 -1.61972e-05 1.27542e-23)
(0.0135733 -1.67682e-05 1.75752e-22)
(0.0136756 -1.72923e-05 -2.61409e-23)
(0.013779 -1.77484e-05 2.60766e-23)
(0.0138831 -1.81613e-05 2.75176e-23)
(0.0139875 -1.85189e-05 -5.00807e-22)
(0.0140917 -1.88256e-05 2.81267e-23)
(0.0141953 -1.90636e-05 -4.66215e-22)
(0.0142977 -1.92529e-05 4.1612e-22)
(0.0143987 -1.9382e-05 -1.31048e-24)
(0.0144977 -1.94606e-05 6.13093e-23)
(0.0145943 -1.94815e-05 0)
(0.0146882 -1.94543e-05 1.09174e-21)
(0.014779 -1.93841e-05 -6.46732e-23)
(0.0148664 -1.92722e-05 0)
(0.0149501 -1.9113e-05 5.37257e-22)
(0.0150296 -1.89287e-05 -5.44217e-22)
(0.0151049 -1.86961e-05 1.10091e-21)
(0.0151758 -1.84714e-05 0)
(0.0152422 -1.81687e-05 1.26306e-21)
(0.0153036 -1.78835e-05 1.13206e-21)
(0.0153603 -1.75484e-05 -1.27982e-21)
(0.0154118 -1.71932e-05 0)
(0.0154583 -1.67869e-05 -1.21968e-21)
(0.0154994 -1.63278e-05 -1.07846e-21)
(0.0155348 -1.57849e-05 1.22286e-21)
(0.015564 -1.51844e-05 2.22763e-21)
(0.0155869 -1.44625e-05 -1.11076e-21)
(0.0156028 -1.36597e-05 -3.57379e-23)
(0.0156113 -1.2649e-05 1.13351e-21)
(0.0156113 -1.15006e-05 -1.13237e-21)
(0.0156036 -1.02446e-05 -1.10287e-21)
(0.0155874 -8.68018e-06 0)
(0.0155632 -7.13925e-06 -1.06413e-21)
(0.0155328 -5.12865e-06 -8.53651e-24)
(0.015495 -3.10949e-06 -8.22174e-24)
(0.0154586 -1.33972e-06 -9.59662e-28)
(0.0154315 -9.94055e-07 -9.72909e-25)
(0.017775 7.06201e-06 6.04408e-27)
(0.0177009 8.15397e-06 -6.07635e-27)
(0.0176545 1.18172e-05 3.83848e-22)
(0.0175943 1.50032e-05 7.22206e-22)
(0.0175397 1.81298e-05 -6.98015e-22)
(0.0174703 2.16195e-05 1.33486e-21)
(0.0173889 2.47252e-05 0)
(0.0172965 2.77314e-05 -1.21057e-21)
(0.0171913 3.05022e-05 -1.16584e-21)
(0.0170758 3.29179e-05 5.60753e-22)
(0.0169512 3.49903e-05 1.02598e-21)
(0.0168192 3.66796e-05 9.95574e-22)
(0.0166812 3.80242e-05 1.33347e-21)
(0.0165394 3.89728e-05 0)
(0.0163953 3.9577e-05 -3.99972e-22)
(0.0162504 3.98047e-05 -4.53851e-23)
(0.0161063 3.97513e-05 -3.06074e-22)
(0.0159638 3.93711e-05 3.99673e-23)
(0.0158246 3.87451e-05 -3.87444e-22)
(0.0156893 3.78798e-05 6.21091e-22)
(0.015559 3.67886e-05 -2.75285e-22)
(0.0154342 3.55276e-05 3.1778e-23)
(0.0153154 3.4114e-05 2.16033e-22)
(0.0152031 3.25821e-05 4.44556e-22)
(0.0150977 3.09301e-05 2.90173e-23)
(0.0149994 2.91942e-05 -2.19787e-22)
(0.0149085 2.74102e-05 1.32201e-23)
(0.0148249 2.55629e-05 -2.22477e-22)
(0.0147488 2.37105e-05 2.06376e-22)
(0.0146802 2.18338e-05 1.2808e-23)
(0.0146192 1.9957e-05 1.92066e-22)
(0.0145656 1.8084e-05 0)
(0.0145195 1.62267e-05 0)
(0.0144807 1.4389e-05 -6.72337e-24)
(0.0144491 1.25777e-05 -1.80136e-25)
(0.0144246 1.07872e-05 2.23407e-22)
(0.014407 9.04177e-06 7.09463e-24)
(0.0143963 7.3203e-06 -1.19423e-22)
(0.0143924 5.6296e-06 1.23946e-22)
(0.0143952 3.95613e-06 0)
(0.0144045 2.32702e-06 -6.28536e-23)
(0.0144204 7.25838e-07 -4.2832e-24)
(0.0144427 -8.60899e-07 -4.67688e-24)
(0.0144713 -2.40635e-06 4.66748e-24)
(0.0145061 -3.94885e-06 2.55262e-24)
(0.014547 -5.45271e-06 -5.21411e-24)
(0.0145938 -6.93461e-06 -4.08894e-23)
(0.0146463 -8.38572e-06 -1.45404e-24)
(0.0147045 -9.81299e-06 1.45243e-24)
(0.0147682 -1.12101e-05 3.95512e-25)
(0.0148372 -1.25778e-05 -3.94631e-25)
(0.0149113 -1.39136e-05 0)
(0.0149905 -1.52212e-05 -5.59458e-23)
(0.0150743 -1.64903e-05 0)
(0.0151627 -1.77233e-05 -6.04369e-23)
(0.0152553 -1.89118e-05 1.25424e-22)
(0.0153519 -2.00589e-05 0)
(0.0154522 -2.11541e-05 1.34686e-22)
(0.0155557 -2.21973e-05 -8.86576e-24)
(0.0156624 -2.31706e-05 -8.84908e-24)
(0.0157717 -2.41025e-05 2.97474e-22)
(0.0158833 -2.49459e-05 3.06845e-22)
(0.0159966 -2.57347e-05 0)
(0.0161113 -2.6451e-05 -2.06458e-23)
(0.0162267 -2.70678e-05 3.76529e-22)
(0.0163426 -2.76133e-05 -2.1193e-23)
(0.0164584 -2.80737e-05 1.10325e-21)
(0.0165736 -2.84553e-05 -9.04261e-23)
(0.0166876 -2.87357e-05 -6.95169e-22)
(0.0168 -2.89391e-05 -4.79127e-23)
(0.0169104 -2.90534e-05 4.78964e-23)
(0.0170182 -2.90893e-05 0)
(0.017123 -2.9041e-05 -7.56e-22)
(0.0172243 -2.89184e-05 -9.25071e-22)
(0.0173218 -2.87273e-05 5.1862e-23)
(0.0174152 -2.84706e-05 0)
(0.0175039 -2.81488e-05 1.83692e-21)
(0.0175878 -2.77878e-05 -2.19058e-22)
(0.0176667 -2.73641e-05 -1.55358e-21)
(0.0177402 -2.6929e-05 -2.24495e-22)
(0.0178084 -2.64021e-05 1.12901e-22)
(0.0178706 -2.58678e-05 1.14938e-22)
(0.0179271 -2.52689e-05 -1.96219e-21)
(0.0179773 -2.46254e-05 0)
(0.0180212 -2.39041e-05 1.75286e-21)
(0.0180584 -2.30985e-05 1.11467e-21)
(0.0180886 -2.2175e-05 -1.17589e-22)
(0.0181112 -2.11533e-05 -8.83108e-22)
(0.018126 -1.99654e-05 8.82476e-22)
(0.0181323 -1.86455e-05 5.87861e-23)
(0.0181296 -1.70668e-05 -9.3404e-22)
(0.0181171 -1.52828e-05 2.78286e-21)
(0.0180953 -1.33409e-05 0)
(0.018064 -1.10359e-05 0)
(0.0180237 -8.68746e-06 8.97276e-22)
(0.0179768 -5.86658e-06 -8.7623e-22)
(0.0179226 -2.98673e-06 -6.84827e-24)
(0.01787 -3.36033e-07 8.00433e-28)
(0.0178258 8.4208e-07 -8.14342e-25)
(0.0196473 1.07905e-05 0)
(0.0195587 1.308e-05 6.60109e-22)
(0.0194958 1.76378e-05 -2.52024e-24)
(0.0194201 2.19922e-05 6.08406e-22)
(0.0193486 2.60723e-05 2.31858e-21)
(0.0192632 3.0539e-05 -1.1014e-21)
(0.019166 3.46224e-05 -1.06063e-21)
(0.0190582 3.84841e-05 9.9831e-22)
(0.0189385 4.20452e-05 9.48743e-22)
(0.0188093 4.51393e-05 2.71892e-23)
(0.018672 4.7785e-05 -8.71078e-22)
(0.0185282 4.99204e-05 -7.93436e-22)
(0.0183796 5.15976e-05 -7.8989e-22)
(0.0182281 5.27546e-05 4.50902e-23)
(0.0180754 5.34509e-05 6.53755e-22)
(0.0179228 5.36661e-05 6.12197e-22)
(0.0177719 5.34886e-05 5.73008e-22)
(0.0176237 5.28965e-05 -3.25224e-23)
(0.0174796 5.19691e-05 3.25046e-23)
(0.0173403 5.07326e-05 -5.02098e-22)
(0.0172069 4.92005e-05 -4.17506e-22)
(0.0170798 4.74426e-05 0)
(0.0169595 4.54826e-05 0)
(0.0168465 4.3365e-05 -1.91189e-22)
(0.016741 4.10926e-05 2.25474e-23)
(0.0166432 3.87114e-05 1.76421e-22)
(0.0165534 3.62614e-05 -3.24672e-23)
(0.0164716 3.37332e-05 -3.26234e-22)
(0.0163979 3.11921e-05 -1.55605e-22)
(0.0163322 2.86212e-05 -1.85327e-22)
(0.0162745 2.60494e-05 -3.0853e-22)
(0.0162248 2.34835e-05 -1.65445e-22)
(0.016183 2.0938e-05 -1.77969e-22)
(0.016149 1.84182e-05 1.81345e-22)
(0.0161226 1.59316e-05 -1.07753e-23)
(0.0161038 1.34725e-05 -2.63275e-22)
(0.0160923 1.10686e-05 -5.68801e-24)
(0.0160883 8.69777e-06 9.57365e-23)
(0.0160914 6.36777e-06 -1.92388e-22)
(0.0161017 4.06304e-06 9.70246e-23)
(0.016119 1.81365e-06 5.38564e-23)
(0.0161431 -3.97821e-07 -1.08782e-22)
(0.016174 -2.58279e-06 -7.34047e-24)
(0.0162116 -4.714e-06 3.74736e-24)
(0.0162556 -6.83249e-06 -6.40958e-23)
(0.016306 -8.90012e-06 6.70024e-23)
(0.0163626 -1.09338e-05 3.50221e-23)
(0.0164252 -1.29245e-05 0)
(0.0164936 -1.48782e-05 2.89659e-23)
(0.0165678 -1.67886e-05 -3.0487e-25)
(0.0166474 -1.8655e-05 -2.08027e-23)
(0.0167324 -2.04735e-05 0)
(0.0168225 -2.22482e-05 9.28663e-27)
(0.0169174 -2.39663e-05 0)
(0.0170168 -2.5629e-05 0)
(0.0171205 -2.72269e-05 -2.03046e-22)
(0.0172282 -2.87608e-05 -1.05341e-22)
(0.0173395 -3.02198e-05 -1.09228e-22)
(0.017454 -3.16009e-05 -2.262e-22)
(0.0175715 -3.28836e-05 -2.19153e-22)
(0.0176914 -3.40982e-05 -4.98689e-22)
(0.0178133 -3.51935e-05 -2.3394e-22)
(0.0179367 -3.62027e-05 -5.14729e-22)
(0.0180612 -3.71084e-05 -5.47242e-22)
(0.0181861 -3.78799e-05 -8.19793e-22)
(0.0183111 -3.85464e-05 -5.61979e-22)
(0.0184356 -3.90933e-05 -5.77416e-22)
(0.0185591 -3.95284e-05 3.74936e-23)
(0.018681 -3.98266e-05 1.17743e-21)
(0.0188008 -4.00146e-05 6.22116e-22)
(0.018918 -4.00807e-05 0)
(0.0190321 -4.0036e-05 1.34229e-21)
(0.0191427 -3.98761e-05 2.03578e-21)
(0.0192492 -3.96107e-05 -8.39318e-23)
(0.0193512 -3.92495e-05 -8.69994e-23)
(0.0194485 -3.88031e-05 -1.3647e-24)
(0.0195406 -3.82729e-05 -1.33868e-21)
(0.0196274 -3.76802e-05 0)
(0.0197085 -3.70075e-05 1.46848e-21)
(0.0197835 -3.62981e-05 9.34041e-23)
(0.0198525 -3.5484e-05 8.67286e-25)
(0.0199146 -3.46294e-05 -1.89867e-22)
(0.0199702 -3.369e-05 1.62853e-21)
(0.0200185 -3.26727e-05 1.64141e-21)
(0.0200595 -3.15463e-05 -3.20574e-21)
(0.0200928 -3.02986e-05 -9.76804e-23)
(0.0201179 -2.88955e-05 1.665e-21)
(0.0201343 -2.73467e-05 -1.56986e-21)
(0.0201417 -2.55857e-05 0)
(0.0201394 -2.36367e-05 -2.44025e-23)
(0.020127 -2.13823e-05 1.77859e-25)
(0.0201036 -1.88545e-05 -1.52607e-21)
(0.0200698 -1.61169e-05 0)
(0.0200256 -1.29754e-05 1.52135e-21)
(0.0199717 -9.71577e-06 -1.16335e-23)
(0.0199105 -6.00772e-06 7.51609e-22)
(0.019842 -2.16478e-06 0)
(0.0197743 1.49126e-06 0)
(0.0197139 3.69669e-06 6.82422e-25)
(0.0211331 1.55281e-05 -1.4325e-22)
(0.0210306 1.91587e-05 8.22479e-26)
(0.0209519 2.46573e-05 1.07441e-21)
(0.020861 3.02426e-05 -2.06122e-21)
(0.0207732 3.53293e-05 -9.83814e-22)
(0.0206722 4.07951e-05 1.87235e-21)
(0.0205601 4.58735e-05 8.91445e-22)
(0.0204383 5.05941e-05 -1.68557e-21)
(0.0203056 5.49361e-05 1.61688e-21)
(0.0201646 5.86898e-05 -1.52543e-21)
(0.0200165 6.18795e-05 -2.14045e-23)
(0.0198633 6.44267e-05 6.15263e-23)
(0.0197064 6.63974e-05 -4.00955e-23)
(0.0195479 6.77203e-05 0)
(0.0193892 6.84597e-05 1.12169e-21)
(0.0192317 6.86084e-05 -5.42137e-22)
(0.019077 6.82485e-05 -4.76407e-22)
(0.0189259 6.73856e-05 -2.7031e-23)
(0.0187798 6.60942e-05 -7.84416e-22)
(0.0186394 6.44204e-05 -2.53446e-23)
(0.0185056 6.23792e-05 3.70257e-22)
(0.0183788 6.00543e-05 -3.50078e-22)
(0.0182596 5.74764e-05 0)
(0.0181482 5.47002e-05 0)
(0.018045 5.17348e-05 0)
(0.01795 4.86352e-05 0)
(0.0178635 4.54455e-05 0)
(0.0177855 4.21643e-05 2.96299e-22)
(0.0177159 3.88613e-05 -1.73024e-23)
(0.0176549 3.55237e-05 1.36393e-22)
(0.0176023 3.21837e-05 1.44831e-22)
(0.017558 2.88517e-05 4.02733e-22)
(0.017522 2.55444e-05 1.38763e-22)
(0.0174941 2.22688e-05 -2.82512e-22)
(0.0174742 1.90339e-05 0)
(0.0174622 1.58351e-05 1.48578e-22)
(0.017458 1.27012e-05 -1.53322e-22)
(0.0174615 9.60948e-06 -1.58765e-22)
(0.0174724 6.56932e-06 8.77057e-23)
(0.0174908 3.566e-06 -9.10601e-23)
(0.0175164 6.30772e-07 -5.71681e-24)
(0.0175491 -2.25465e-06 5.73097e-24)
(0.0175888 -5.09918e-06 9.75784e-23)
(0.0176353 -7.87666e-06 -3.26375e-24)
(0.0176885 -1.06284e-05 6.00471e-23)
(0.0177481 -1.33157e-05 -5.92412e-23)
(0.0178141 -1.59546e-05 0)
(0.0178862 -1.85363e-05 9.75895e-25)
(0.0179643 -2.10649e-05 -1.69292e-23)
(0.0180482 -2.35342e-05 5.20662e-25)
(0.0181376 -2.59418e-05 4.50181e-27)
(0.0182324 -2.82821e-05 2.31697e-24)
(0.0183322 -3.05593e-05 3.79295e-23)
(0.0184368 -3.27581e-05 -2.41241e-24)
(0.0185459 -3.48782e-05 -5.22609e-24)
(0.0186592 -3.6909e-05 9.04505e-23)
(0.0187762 -3.88486e-05 9.97827e-23)
(0.0188967 -4.06858e-05 -1.12683e-23)
(0.0190203 -4.24143e-05 2.02469e-22)
(0.0191464 -4.40119e-05 1.85002e-22)
(0.0192748 -4.55086e-05 6.11554e-22)
(0.0194048 -4.68517e-05 0)
(0.0195361 -4.80716e-05 4.34943e-22)
(0.019668 -4.91518e-05 4.4851e-22)
(0.0198 -5.00597e-05 9.23969e-22)
(0.0199316 -5.0824e-05 4.75467e-22)
(0.0200624 -5.14298e-05 -4.88704e-22)
(0.0201916 -5.18862e-05 0)
(0.0203187 -5.21668e-05 -5.14995e-22)
(0.0204433 -5.22994e-05 5.2763e-22)
(0.0205648 -5.22739e-05 1.01233e-21)
(0.0206827 -5.2101e-05 -2.14221e-21)
(0.0207965 -5.17781e-05 -2.25856e-21)
(0.0209056 -5.13189e-05 0)
(0.0210098 -5.07392e-05 -1.24761e-21)
(0.0211088 -5.00502e-05 7.40402e-23)
(0.0212022 -4.92552e-05 0)
(0.0212897 -4.83727e-05 1.23229e-21)
(0.0213709 -4.73881e-05 7.85519e-23)
(0.0214454 -4.63332e-05 8.34217e-25)
(0.0215131 -4.51581e-05 -7.965e-23)
(0.0215732 -4.39027e-05 2.58802e-21)
(0.021626 -4.25392e-05 2.52961e-21)
(0.0216708 -4.10593e-05 -1.15148e-21)
(0.0217075 -3.94357e-05 1.24165e-21)
(0.0217355 -3.76504e-05 8.32193e-23)
(0.0217544 -3.567e-05 -1.41859e-21)
(0.0217638 -3.3493e-05 1.33756e-21)
(0.0217632 -3.10583e-05 0)
(0.021752 -2.83784e-05 2.66947e-21)
(0.0217298 -2.53512e-05 0)
(0.0216959 -2.1986e-05 0)
(0.0216508 -1.83605e-05 0)
(0.0215946 -1.43016e-05 -1.2855e-21)
(0.0215281 -1.00492e-05 -1.00756e-23)
(0.021454 -5.38569e-06 9.74258e-24)
(0.0213721 -4.99637e-07 -4.99848e-24)
(0.0212903 4.24589e-06 -6.11408e-22)
(0.0212148 7.60808e-06 -1.14834e-27)
(0.0223322 2.13185e-05 1.23554e-22)
(0.0222173 2.63762e-05 -4.81952e-22)
(0.0221242 3.28461e-05 -9.25241e-22)
(0.0220197 3.96862e-05 1.77275e-21)
(0.0219173 4.58084e-05 -6.45209e-24)
(0.0218026 5.22778e-05 -1.59667e-21)
(0.021678 5.83446e-05 1.52042e-21)
(0.0215444 6.39106e-05 1.45147e-21)
(0.0214013 6.90083e-05 -1.37048e-21)
(0.0212509 7.33899e-05 -3.60055e-25)
(0.0210949 7.70846e-05 0)
(0.0209349 7.99998e-05 -1.09449e-21)
(0.0207725 8.22122e-05 -3.4112e-23)
(0.0206096 8.36464e-05 -9.59347e-22)
(0.0204475 8.43724e-05 -9.5492e-22)
(0.0202878 8.43973e-05 -5.23674e-23)
(0.0201319 8.37956e-05 8.61947e-22)
(0.0199804 8.26002e-05 -7.58227e-22)
(0.0198348 8.08806e-05 7.10916e-22)
(0.0196955 7.87039e-05 -6.68173e-22)
(0.0195636 7.6088e-05 6.29555e-22)
(0.0194394 7.31297e-05 2.97561e-22)
(0.0193232 6.98668e-05 -5.82375e-22)
(0.0192154 6.63641e-05 7.3175e-25)
(0.0191162 6.26381e-05 1.65019e-23)
(0.0190257 5.87524e-05 0)
(0.0189441 5.47552e-05 0)
(0.0188714 5.06538e-05 2.37496e-22)
(0.0188074 4.65207e-05 2.19491e-22)
(0.0187523 4.23486e-05 2.90933e-23)
(0.0187059 3.81733e-05 -1.45128e-23)
(0.0186682 3.40084e-05 -2.33673e-22)
(0.018639 2.98731e-05 7.46444e-24)