/*--------------------------------*- C++ -*----------------------------------*\
| =========                 |                                                 |
| \\      /  F ield         | OpenFOAM: The Open Source CFD Toolbox           |
|  \\    /   O peration     | Version:  2112                                  |
|   \\  /    A nd           | Website:  www.openfoam.com                      |
|    \\/     M anipulation  |                                                 |
\*---------------------------------------------------------------------------*/
FoamFile
{
    version     2.0;
    format      ascii;
    arch        "LSB;label=32;scalar=64";
    class       volScalarField;
    location    "2858";
    object      yPlus;
}
// * * * * * * * * * * * * * * * * * * * * * * * * * * * * * * * * * * * * * //

dimensions      [0 0 0 0 0 0 0];

internalField   uniform 0;

boundaryField
{
    bottomWall
    {
        type            calculated;
        value           nonuniform List<scalar> 
99
(
0.375398
0.403771
0.279364
0.23316
0.297823
0.242292
0.218985
0.186159
0.172913
0.159256
0.158323
0.16267
0.172031
0.179304
0.183846
0.183157
0.180441
0.176949
0.172749
0.168663
0.166655
0.193157
0.22452
0.240313
0.251787
0.258698
0.263548
0.266227
0.267595
0.267623
0.266671
0.26475
0.262048
0.258596
0.254507
0.249827
0.244625
0.238948
0.232847
0.226358
0.21952
0.21236
0.204905
0.197173
0.18918
0.180932
0.172435
0.16368
0.154658
0.145347
0.135708
0.125694
0.115217
0.104165
0.0923416
0.0794262
0.0647823
0.04685
0.0174429
0.0383658
0.0559611
0.0683467
0.0780255
0.0858731
0.0923697
0.0976641
0.10202
0.10533
0.107824
0.109189
0.109695
0.108647
0.106557
0.101728
0.0952814
0.0825926
0.0659022
0.0222769
0.0608709
0.0527838
0.0325544
0.0514265
0.0891844
0.128533
0.170612
0.212838
0.254749
0.292345
0.325637
0.36355
0.409461
0.477703
0.566735
0.658844
0.754668
0.765756
0.62691
0.433601
0.324697
)
;
    }
    defaultFaces
    {
        type            empty;
    }
    inlet
    {
        type            cyclic;
    }
    outlet
    {
        type            cyclic;
    }
    topWall
    {
        type            calculated;
        value           nonuniform List<scalar> 
99
(
0.858883
0.858016
0.858625
0.857037
0.855723
0.85308
0.849843
0.845951
0.841314
0.836108
0.830376
0.824162
0.817505
0.810567
0.803391
0.796066
0.788663
0.781205
0.773783
0.766436
0.759248
0.752211
0.745368
0.738767
0.732452
0.72639
0.720602
0.715093
0.709869
0.704961
0.700368
0.696093
0.692135
0.688489
0.685161
0.682126
0.679374
0.676923
0.674768
0.672883
0.671247
0.669904
0.668845
0.668079
0.667607
0.667394
0.667444
0.66775
0.668309
0.669119
0.670172
0.671476
0.67303
0.674814
0.676831
0.679074
0.681538
0.684219
0.687103
0.690211
0.693539
0.69706
0.700775
0.704628
0.708607
0.712734
0.716995
0.721366
0.725826
0.730387
0.735029
0.739744
0.744519
0.749342
0.754204
0.7591
0.764017
0.768955
0.773898
0.778857
0.783822
0.788774
0.793748
0.798697
0.803638
0.808565
0.813462
0.8183
0.823058
0.827726
0.832246
0.836585
0.84079
0.84463
0.848155
0.851344
0.853788
0.855294
0.857943
)
;
    }
}


// ************************************************************************* //
