/*--------------------------------*- C++ -*----------------------------------*\
| =========                 |                                                 |
| \\      /  F ield         | OpenFOAM: The Open Source CFD Toolbox           |
|  \\    /   O peration     | Version:  2112                                  |
|   \\  /    A nd           | Website:  www.openfoam.com                      |
|    \\/     M anipulation  |                                                 |
\*---------------------------------------------------------------------------*/
FoamFile
{
    version     2.0;
    format      ascii;
    arch        "LSB;label=32;scalar=64";
    class       volScalarField;
    location    "0";
    object      Cx;
}
// * * * * * * * * * * * * * * * * * * * * * * * * * * * * * * * * * * * * * //

dimensions      [0 1 0 0 0 0 0];

internalField   nonuniform List<scalar> 
14336
(
453.135
366.57
296.578
239.986
194.228
157.231
127.317
103.13
83.5733
67.761
54.976
44.6387
36.2804
29.5224
24.0582
19.6401
16.0679
13.1796
10.8442
8.95599
7.42925
6.19481
5.1967
4.38968
3.73716
3.20957
2.78299
2.43808
2.1592
1.93371
1.75139
1.60398
1.48479
1.38842
1.3105
1.2475
1.19656
1.15537
1.12206
1.09514
1.07337
1.05576
1.04153
1.03002
1.02072
1.01319
1.00711
1.00219
0.997895
0.993359
0.988136
0.982134
0.97525
0.967368
0.958364
0.948106
0.936453
0.92326
0.908381
0.891671
0.872995
0.852235
0.829295
0.804112
0.776668
0.746993
0.715179
0.68138
0.645819
0.608782
0.570613
0.531705
0.49248
0.453377
0.414829
0.377246
0.340998
0.306401
0.273711
0.243117
0.214742
0.188649
0.164842
0.14328
0.123885
0.106549
0.091144
0.0775302
0.0655623
0.0550942
0.0459837
0.038095
0.0313007
0.0254828
0.0205337
0.0163551
0.0128583
0.00996283
0.00759503
0.00568699
0.00417523
0.0029999
0.00210479
0.00143789
0.000952363
0.000607487
0.000369117
0.000209644
0.00010742
4.59184e-05
1.27941e-05
-9.96338e-07
-9.96338e-07
1.27941e-05
4.59184e-05
0.00010742
0.000209644
0.000369117
0.000607487
0.000952363
0.00143789
0.00210479
0.0029999
0.00417523
0.00568699
0.00759503
0.00996283
0.0128583
0.0163551
0.0205337
0.0254828
0.0313007
0.038095
0.0459837
0.0550942
0.0655623
0.0775302
0.091144
0.106549
0.123885
0.14328
0.164842
0.188649
0.214742
0.243117
0.273711
0.306401
0.340998
0.377246
0.414829
0.453377
0.49248
0.531705
0.570613
0.608782
0.645819
0.68138
0.715179
0.746993
0.776668
0.804112
0.829295
0.852235
0.872995
0.891671
0.908381
0.92326
0.936453
0.948106
0.958364
0.967368
0.97525
0.982134
0.988136
0.993359
0.997895
1.00219
1.00711
1.01319
1.02072
1.03002
1.04153
1.05576
1.07337
1.09514
1.12206
1.15537
1.19656
1.2475
1.3105
1.38842
1.48479
1.60398
1.75139
1.93371
2.1592
2.43808
2.78299
3.20957
3.73716
4.38968
5.1967
6.19481
7.42925
8.95599
10.8442
13.1796
16.0679
19.6401
24.0582
29.5224
36.2804
44.6387
54.976
67.761
83.5733
103.13
127.317
157.231
194.228
239.986
296.578
366.57
453.135
453.135
366.57
296.578
239.986
194.228
157.231
127.317
103.13
83.5733
67.761
54.976
44.6387
36.2804
29.5224
24.0582
19.6401
16.0679
13.1796
10.8442
8.95597
7.42923
6.19479
5.19668
4.38966
3.73714
3.20955
2.78297
2.43806
2.15918
1.93369
1.75138
1.60396
1.48477
1.3884
1.31048
1.24748
1.19654
1.15535
1.12205
1.09512
1.07335
1.05575
1.04151
1.03001
1.0207
1.01318
1.0071
1.00218
0.997904
0.993368
0.988145
0.982144
0.97526
0.967377
0.958374
0.948116
0.936463
0.92327
0.90839
0.89168
0.873004
0.852244
0.829303
0.80412
0.776675
0.747
0.715185
0.681385
0.645823
0.608785
0.570615
0.531705
0.49248
0.453376
0.414827
0.377244
0.340994
0.306396
0.273705
0.243111
0.214735
0.188641
0.164833
0.143271
0.123876
0.106539
0.0911341
0.0775201
0.065552
0.0550838
0.0459733
0.0380846
0.0312903
0.0254726
0.0205236
0.0163452
0.0128487
0.00995343
0.00758588
0.00567807
0.00416649
0.00299128
0.00209619
0.00142921
0.000943482
0.000598256
0.000359384
0.000199246
9.61853e-05
3.36616e-05
-6.86344e-07
-1.58623e-05
-1.58623e-05
-6.86344e-07
3.36616e-05
9.61853e-05
0.000199246
0.000359384
0.000598256
0.000943482
0.00142921
0.00209619
0.00299128
0.00416649
0.00567807
0.00758588
0.00995343
0.0128487
0.0163452
0.0205236
0.0254726
0.0312903
0.0380846
0.0459733
0.0550838
0.065552
0.0775201
0.0911341
0.106539
0.123876
0.143271
0.164833
0.188641
0.214735
0.243111
0.273705
0.306396
0.340994
0.377244
0.414827
0.453376
0.49248
0.531705
0.570615
0.608785
0.645823
0.681385
0.715185
0.747
0.776675
0.80412
0.829303
0.852244
0.873004
0.89168
0.90839
0.92327
0.936463
0.948116
0.958374
0.967377
0.97526
0.982144
0.988145
0.993368
0.997904
1.00218
1.0071
1.01318
1.0207
1.03001
1.04151
1.05575
1.07335
1.09512
1.12205
1.15535
1.19654
1.24748
1.31048
1.3884
1.48477
1.60396
1.75138
1.93369
2.15918
2.43806
2.78297
3.20955
3.73714
4.38966
5.19668
6.19479
7.42923
8.95597
10.8442
13.1796
16.0679
19.6401
24.0582
29.5224
36.2804
44.6387
54.976
67.761
83.5733
103.13
127.317
157.231
194.228
239.986
296.578
366.57
453.135
453.135
366.57
296.578
239.986
194.228
157.231
127.317
103.13
83.5733
67.761
54.9759
44.6386
36.2804
29.5224
24.0582
19.6401
16.0679
13.1795
10.8442
8.95595
7.42921
6.19477
5.19666
4.38964
3.73713
3.20954
2.78295
2.43804
2.15916
1.93367
1.75136
1.60394
1.48475
1.38838
1.31046
1.24746
1.19652
1.15533
1.12203
1.0951
1.07333
1.05573
1.0415
1.02999
1.02069
1.01317
1.00709
1.00217
0.99791
0.993375
0.988153
0.982152
0.975268
0.967386
0.958382
0.948124
0.936472
0.923279
0.908399
0.891689
0.873013
0.852252
0.82931
0.804127
0.776682
0.747006
0.71519
0.68139
0.645827
0.608788
0.570617
0.531706
0.49248
0.453375
0.414826
0.377241
0.340991
0.306392
0.2737
0.243105
0.214729
0.188634
0.164826
0.143263
0.123868
0.106531
0.091125
0.0775109
0.0655427
0.0550744
0.0459639
0.0380752
0.031281
0.0254633
0.0205143
0.016336
0.0128393
0.00994393
0.00757609
0.00566786
0.0041557
0.00297973
0.00208368
0.00141554
0.00092843
0.000581589
0.000340841
0.000178535
7.29718e-05
7.55857e-06
-3.01285e-05
-4.89381e-05
-4.89381e-05
-3.01285e-05
7.55857e-06
7.29718e-05
0.000178535
0.000340841
0.000581589
0.00092843
0.00141554
0.00208368
0.00297973
0.0041557
0.00566786
0.00757609
0.00994393
0.0128393
0.016336
0.0205143
0.0254633
0.031281
0.0380752
0.0459639
0.0550744
0.0655427
0.0775109
0.091125
0.106531
0.123868
0.143263
0.164826
0.188634
0.214729
0.243105
0.2737
0.306392
0.340991
0.377241
0.414826
0.453375
0.49248
0.531706
0.570617
0.608788
0.645827
0.68139
0.71519
0.747006
0.776682
0.804127
0.82931
0.852252
0.873013
0.891689
0.908399
0.923279
0.936472
0.948124
0.958382
0.967386
0.975268
0.982152
0.988153
0.993375
0.99791
1.00217
1.00709
1.01317
1.02069
1.02999
1.0415
1.05573
1.07333
1.0951
1.12203
1.15533
1.19652
1.24746
1.31046
1.38838
1.48475
1.60394
1.75136
1.93367
2.15916
2.43804
2.78295
3.20954
3.73713
4.38964
5.19666
6.19477
7.42921
8.95595
10.8442
13.1795
16.0679
19.6401
24.0582
29.5224
36.2804
44.6386
54.9759
67.761
83.5733
103.13
127.317
157.231
194.228
239.986
296.578
366.57
453.135
453.135
366.57
296.578
239.986
194.228
157.231
127.317
103.13
83.5732
67.7609
54.9759
44.6386
36.2804
29.5224
24.0582
19.6401
16.0679
13.1795
10.8442
8.95593
7.42919
6.19475
5.19664
4.38962
3.73711
3.20952
2.78293
2.43802
2.15914
1.93366
1.75134
1.60393
1.48474
1.38837
1.31045
1.24744
1.1965
1.15532
1.12201
1.09509
1.07332
1.05572
1.04149
1.02998
1.02068
1.01316
1.00708
1.00217
0.997916
0.993381
0.98816
0.982159
0.975275
0.967393
0.95839
0.948132
0.93648
0.923287
0.908407
0.891697
0.87302
0.852259
0.829318
0.804134
0.776688
0.747011
0.715195
0.681394
0.64583
0.60879
0.570619
0.531708
0.49248
0.453375
0.414824
0.377238
0.340987
0.306388
0.273695
0.243099
0.214722
0.188627
0.164818
0.143255
0.123859
0.106522
0.0911164
0.0775021
0.0655337
0.0550654
0.0459548
0.038066
0.0312717
0.0254538
0.0205045
0.0163257
0.0128285
0.00993233
0.00756345
0.0056539
0.00414013
0.00296222
0.00206392
0.00139318
0.000903112
0.000552908
0.000308341
0.000141685
3.11488e-05
-3.99712e-05
-8.42316e-05
-0.000109711
-0.000109711
-8.42316e-05
-3.99712e-05
3.11488e-05
0.000141685
0.000308341
0.000552908
0.000903112
0.00139318
0.00206392
0.00296222
0.00414013
0.0056539
0.00756345
0.00993233
0.0128285
0.0163257
0.0205045
0.0254538
0.0312717
0.038066
0.0459548
0.0550654
0.0655337
0.0775021
0.0911164
0.106522
0.123859
0.143255
0.164818
0.188627
0.214722
0.243099
0.273695
0.306388
0.340987
0.377238
0.414824
0.453375
0.49248
0.531708
0.570619
0.60879
0.64583
0.681394
0.715195
0.747011
0.776688
0.804134
0.829318
0.852259
0.87302
0.891697
0.908407
0.923287
0.93648
0.948132
0.95839
0.967393
0.975275
0.982159
0.98816
0.993381
0.997916
1.00217
1.00708
1.01316
1.02068
1.02998
1.04149
1.05572
1.07332
1.09509
1.12201
1.15532
1.1965
1.24744
1.31045
1.38837
1.48474
1.60393
1.75134
1.93366
2.15914
2.43802
2.78293
3.20952
3.73711
4.38962
5.19664
6.19475
7.42919
8.95593
10.8442
13.1795
16.0679
19.6401
24.0582
29.5224
36.2804
44.6386
54.9759
67.7609
83.5732
103.13
127.317
157.231
194.228
239.986
296.578
366.57
453.135
453.135
366.57
296.578
239.986
194.228
157.231
127.317
103.13
83.5732
67.7609
54.9759
44.6386
36.2804
29.5223
24.0581
19.6401
16.0678
13.1795
10.8442
8.95591
7.42917
6.19473
5.19662
4.3896
3.73709
3.2095
2.78292
2.438
2.15913
1.93364
1.75132
1.60391
1.48472
1.38835
1.31043
1.24743
1.19649
1.1553
1.122
1.09508
1.07331
1.05571
1.04148
1.02997
1.02067
1.01315
1.00707
1.00216
0.997922
0.993387
0.988166
0.982166
0.975282
0.967401
0.958398
0.94814
0.936487
0.923295
0.908415
0.891705
0.873028
0.852267
0.829325
0.804141
0.776694
0.747017
0.7152
0.681399
0.645834
0.608793
0.570621
0.531709
0.492481
0.453374
0.414823
0.377236
0.340984
0.306384
0.273691
0.243094
0.214716
0.18862
0.164811
0.143248
0.123851
0.106514
0.0911079
0.0774934
0.0655248
0.0550562
0.0459453
0.0380562
0.0312614
0.025443
0.0204929
0.0163131
0.0128146
0.00991669
0.00754572
0.00563361
0.00411679
0.00293533
0.00203294
0.00135756
0.000862249
0.000506129
0.000254874
8.06214e-05
-3.85856e-05
-0.000119654
-0.000175377
-0.000210986
-0.000210986
-0.000175377
-0.000119654
-3.85856e-05
8.06214e-05
0.000254874
0.000506129
0.000862249
0.00135756
0.00203294
0.00293533
0.00411679
0.00563361
0.00754572
0.00991669
0.0128146
0.0163131
0.0204929
0.025443
0.0312614
0.0380562
0.0459453
0.0550562
0.0655248
0.0774934
0.0911079
0.106514
0.123851
0.143248
0.164811
0.18862
0.214716
0.243094
0.273691
0.306384
0.340984
0.377236
0.414823
0.453374
0.492481
0.531709
0.570621
0.608793
0.645834
0.681399
0.7152
0.747017
0.776694
0.804141
0.829325
0.852267
0.873028
0.891705
0.908415
0.923295
0.936487
0.94814
0.958398
0.967401
0.975282
0.982166
0.988166
0.993387
0.997922
1.00216
1.00707
1.01315
1.02067
1.02997
1.04148
1.05571
1.07331
1.09508
1.122
1.1553
1.19649
1.24743
1.31043
1.38835
1.48472
1.60391
1.75132
1.93364
2.15913
2.438
2.78292
3.2095
3.73709
4.3896
5.19662
6.19473
7.42917
8.95591
10.8442
13.1795
16.0678
19.6401
24.0581
29.5223
36.2804
44.6386
54.9759
67.7609
83.5732
103.13
127.317
157.231
194.228
239.986
296.578
366.57
453.135
453.135
366.57
296.578
239.986
194.228
157.231
127.317
103.13
83.5732
67.7609
54.9759
44.6386
36.2804
29.5223
24.0581
19.64
16.0678
13.1795
10.8441
8.95589
7.42915
6.19471
5.1966
4.38958
3.73707
3.20948
2.7829
2.43799
2.15911
1.93362
1.7513
1.60389
1.4847
1.38833
1.31041
1.24741
1.19647
1.15529
1.12199
1.09506
1.0733
1.0557
1.04147
1.02996
1.02066
1.01315
1.00707
1.00216
0.997928
0.993394
0.988173
0.982172
0.975289
0.967408
0.958405
0.948148
0.936495
0.923303
0.908423
0.891712
0.873036
0.852274
0.829332
0.804148
0.776701
0.747023
0.715206
0.681403
0.645838
0.608797
0.570624
0.53171
0.492481
0.453374
0.414821
0.377234
0.340981
0.30638
0.273686
0.243088
0.21471
0.188614
0.164804
0.14324
0.123844
0.106506
0.0910992
0.0774843
0.0655153
0.0550463
0.0459348
0.038045
0.0312493
0.0254297
0.0204782
0.0162964
0.0127955
0.00989471
0.00752015
0.00560373
0.00408184
0.0028945
0.00198541
0.00130243
0.000798558
0.000432803
0.000170665
-1.5944e-05
-0.000149267
-0.000246569
-0.000320697
-0.000369721
-0.000369721
-0.000320697
-0.000246569
-0.000149267
-1.5944e-05
0.000170665
0.000432803
0.000798558
0.00130243
0.00198541
0.0028945
0.00408184
0.00560373
0.00752015
0.00989471
0.0127955
0.0162964
0.0204782
0.0254297
0.0312493
0.038045
0.0459348
0.0550463
0.0655153
0.0774843
0.0910992
0.106506
0.123844
0.14324
0.164804
0.188614
0.21471
0.243088
0.273686
0.30638
0.340981
0.377234
0.414821
0.453374
0.492481
0.53171
0.570624
0.608797
0.645838
0.681403
0.715206
0.747023
0.776701
0.804148
0.829332
0.852274
0.873036
0.891712
0.908423
0.923303
0.936495
0.948148
0.958405
0.967408
0.975289
0.982172
0.988173
0.993394
0.997928
1.00216
1.00707
1.01315
1.02066
1.02996
1.04147
1.0557
1.0733
1.09506
1.12199
1.15529
1.19647
1.24741
1.31041
1.38833
1.4847
1.60389
1.7513
1.93362
2.15911
2.43799
2.7829
3.20948
3.73707
4.38958
5.1966
6.19471
7.42915
8.95589
10.8441
13.1795
16.0678
19.64
24.0581
29.5223
36.2804
44.6386
54.9759
67.7609
83.5732
103.13
127.317
157.231
194.228
239.986
296.578
366.57
453.135
453.135
366.57
296.578
239.985
194.228
157.231
127.317
103.13
83.5732
67.7609
54.9759
44.6386
36.2803
29.5223
24.0581
19.64
16.0678
13.1795
10.8441
8.95588
7.42914
6.19469
5.19659
4.38957
3.73705
3.20946
2.78288
2.43797
2.15909
1.9336
1.75129
1.60387
1.48469
1.38832
1.3104
1.2474
1.19646
1.15527
1.12197
1.09505
1.07328
1.05569
1.04146
1.02996
1.02066
1.01314
1.00706
1.00216
0.997936
0.993401
0.98818
0.98218
0.975297
0.967416
0.958413
0.948156
0.936503
0.923311
0.908431
0.89172
0.873044
0.852282
0.82934
0.804155
0.776708
0.74703
0.715211
0.681408
0.645843
0.6088
0.570626
0.531712
0.492482
0.453374
0.414821
0.377232
0.340979
0.306377
0.273682
0.243083
0.214705
0.188607
0.164797
0.143233
0.123835
0.106497
0.0910899
0.0774743
0.0655046
0.0550348
0.0459223
0.0380313
0.031234
0.0254124
0.0204584
0.0162736
0.0127689
0.00986334
0.00748308
0.00555989
0.00403004
0.00283352
0.00191396
0.00121916
0.000701992
0.000321273
4.2231e-05
-0.000163593
-0.000318941
-0.000441675
-0.000541603
-0.000605036
-0.000605036
-0.000541603
-0.000441675
-0.000318941
-0.000163593
4.2231e-05
0.000321273
0.000701992
0.00121916
0.00191396
0.00283352
0.00403004
0.00555989
0.00748308
0.00986334
0.0127689
0.0162736
0.0204584
0.0254124
0.031234
0.0380313
0.0459223
0.0550348
0.0655046
0.0774743
0.0910899
0.106497
0.123835
0.143233
0.164797
0.188607
0.214705
0.243083
0.273682
0.306377
0.340979
0.377232
0.414821
0.453374
0.492482
0.531712
0.570626
0.6088
0.645843
0.681408
0.715211
0.74703
0.776708
0.804155
0.82934
0.852282
0.873044
0.89172
0.908431
0.923311
0.936503
0.948156
0.958413
0.967416
0.975297
0.98218
0.98818
0.993401
0.997936
1.00216
1.00706
1.01314
1.02066
1.02996
1.04146
1.05569
1.07328
1.09505
1.12197
1.15527
1.19646
1.2474
1.3104
1.38832
1.48469
1.60387
1.75129
1.9336
2.15909
2.43797
2.78288
3.20946
3.73705
4.38957
5.19659
6.19469
7.42914
8.95588
10.8441
13.1795
16.0678
19.64
24.0581
29.5223
36.2803
44.6386
54.9759
67.7609
83.5732
103.13
127.317
157.231
194.228
239.985
296.578
366.57
453.135
453.135
366.57
296.578
239.985
194.228
157.231
127.317
103.13
83.5732
67.7609
54.9758
44.6385
36.2803
29.5223
24.0581
19.64
16.0678
13.1795
10.8441
8.95586
7.42912
6.19467
5.19657
4.38955
3.73703
3.20944
2.78286
2.43795
2.15907
1.93359
1.75127
1.60386
1.48467
1.3883
1.31038
1.24738
1.19644
1.15526
1.12196
1.09504
1.07327
1.05568
1.04145
1.02995
1.02065
1.01314
1.00706
1.00215
0.997946
0.993411
0.988189
0.982189
0.975305
0.967424
0.958422
0.948164
0.936512
0.923319
0.90844
0.891729
0.873052
0.852291
0.829348
0.804163
0.776715
0.747036
0.715218
0.681414
0.645847
0.608804
0.570629
0.531715
0.492484
0.453374
0.41482
0.377231
0.340976
0.306373
0.273678
0.243078
0.214699
0.188601
0.16479
0.143225
0.123826
0.106487
0.0910793
0.0774628
0.065492
0.0550209
0.0459068
0.0380137
0.031214
0.0253893
0.0204314
0.0162418
0.0127312
0.00981846
0.00742956
0.00549609
0.00395422
0.00274387
0.00180856
0.001096
0.000558879
0.000155708
-0.000148727
-0.000383535
-0.000572385
-0.000732141
-0.000861871
-0.000935888
-0.000935888
-0.000861871
-0.000732141
-0.000572385
-0.000383535
-0.000148727
0.000155708
0.000558879
0.001096
0.00180856
0.00274387
0.00395422
0.00549609
0.00742956
0.00981846
0.0127312
0.0162418
0.0204314
0.0253893
0.031214
0.0380137
0.0459068
0.0550209
0.065492
0.0774628
0.0910793
0.106487
0.123826
0.143225
0.16479
0.188601
0.214699
0.243078
0.273678
0.306373
0.340976
0.377231
0.41482
0.453374
0.492484
0.531715
0.570629
0.608804
0.645847
0.681414
0.715218
0.747036
0.776715
0.804163
0.829348
0.852291
0.873052
0.891729
0.90844
0.923319
0.936512
0.948164
0.958422
0.967424
0.975305
0.982189
0.988189
0.993411
0.997946
1.00215
1.00706
1.01314
1.02065
1.02995
1.04145
1.05568
1.07327
1.09504
1.12196
1.15526
1.19644
1.24738
1.31038
1.3883
1.48467
1.60386
1.75127
1.93359
2.15907
2.43795
2.78286
3.20944
3.73703
4.38955
5.19657
6.19467
7.42912
8.95586
10.8441
13.1795
16.0678
19.64
24.0581
29.5223
36.2803
44.6385
54.9758
67.7609
83.5732
103.13
127.317
157.231
194.228
239.985
296.578
366.57
453.135
453.135
366.57
296.578
239.985
194.228
157.231
127.317
103.13
83.5731
67.7608
54.9758
44.6385
36.2803
29.5223
24.0581
19.64
16.0678
13.1794
10.8441
8.95584
7.4291
6.19466
5.19655
4.38953
3.73701
3.20943
2.78284
2.43793
2.15905
1.93357
1.75125
1.60384
1.48465
1.38828
1.31037
1.24737
1.19643
1.15525
1.12195
1.09503
1.07327
1.05567
1.04144
1.02994
1.02065
1.01313
1.00706
1.00215
0.997959
0.993423
0.988201
0.9822
0.975316
0.967435
0.958432
0.948175
0.936522
0.923329
0.90845
0.891739
0.873062
0.8523
0.829357
0.804171
0.776723
0.747044
0.715225
0.68142
0.645853
0.608809
0.570633
0.531717
0.492485
0.453375
0.41482
0.37723
0.340974
0.30637
0.273674
0.243073
0.214693
0.188594
0.164782
0.143216
0.123816
0.106476
0.091067
0.077449
0.0654765
0.0550033
0.0458867
0.0379906
0.0311871
0.0253577
0.0203941
0.0161973
0.0126779
0.00975451
0.00735282
0.00540421
0.00384468
0.00261403
0.00165569
0.000917199
0.000350962
-8.49833e-05
-0.000426642
-0.000704409
-0.000941835
-0.00114743
-0.00130239
-0.0013834
-0.0013834
-0.00130239
-0.00114743
-0.000941835
-0.000704409
-0.000426642
-8.49833e-05
0.000350962
0.000917199
0.00165569
0.00261403
0.00384468
0.00540421
0.00735282
0.00975451
0.0126779
0.0161973
0.0203941
0.0253577
0.0311871
0.0379906
0.0458867
0.0550033
0.0654765
0.077449
0.091067
0.106476
0.123816
0.143216
0.164782
0.188594
0.214693
0.243073
0.273674
0.30637
0.340974
0.37723
0.41482
0.453375
0.492485
0.531717
0.570633
0.608809
0.645853
0.68142
0.715225
0.747044
0.776723
0.804171
0.829357
0.8523
0.873062
0.891739
0.90845
0.923329
0.936522
0.948175
0.958432
0.967435
0.975316
0.9822
0.988201
0.993423
0.997959
1.00215
1.00706
1.01313
1.02065
1.02994
1.04144
1.05567
1.07327
1.09503
1.12195
1.15525
1.19643
1.24737
1.31037
1.38828
1.48465
1.60384
1.75125
1.93357
2.15905
2.43793
2.78284
3.20943
3.73701
4.38953
5.19655
6.19466
7.4291
8.95584
10.8441
13.1794
16.0678
19.64
24.0581
29.5223
36.2803
44.6385
54.9758
67.7608
83.5731
103.13
127.317
157.231
194.228
239.985
296.578
366.57
453.135
453.135
366.57
296.578
239.985
194.228
157.231
127.317
103.13
83.5731
67.7608
54.9758
44.6385
36.2803
29.5222
24.058
19.64
16.0677
13.1794
10.8441
8.95582
7.42908
6.19464
5.19653
4.38951
3.737
3.20941
2.78283
2.43791
2.15904
1.93355
1.75123
1.60382
1.48464
1.38827
1.31035
1.24735
1.19642
1.15524
1.12194
1.09502
1.07326
1.05566
1.04144
1.02994
1.02064
1.01313
1.00706
1.00215
0.997977
0.99344
0.988217
0.982215
0.97533
0.967448
0.958445
0.948187
0.936534
0.923341
0.908461
0.89175
0.873073
0.85231
0.829367
0.804181
0.776732
0.747053
0.715233
0.681428
0.645859
0.608815
0.570638
0.531721
0.492488
0.453377
0.414821
0.377229
0.340972
0.306367
0.27367
0.243068
0.214686
0.188586
0.164773
0.143206
0.123805
0.106463
0.0910519
0.0774318
0.0654568
0.0549806
0.0458603
0.0379597
0.0311505
0.0253143
0.0203421
0.0161349
0.0126028
0.00966394
0.00724377
0.00527333
0.00368842
0.00242871
0.00143749
0.000662077
5.44117e-05
-0.000428342
-0.000823835
-0.00116271
-0.00146178
-0.00170981
-0.00188332
-0.00197169
-0.00197169
-0.00188332
-0.00170981
-0.00146178
-0.00116271
-0.000823835
-0.000428342
5.44117e-05
0.000662077
0.00143749
0.00242871
0.00368842
0.00527333
0.00724377
0.00966394
0.0126028
0.0161349
0.0203421
0.0253143
0.0311505
0.0379597
0.0458603
0.0549806
0.0654568
0.0774318
0.0910519
0.106463
0.123805
0.143206
0.164773
0.188586
0.214686
0.243068
0.27367
0.306367
0.340972
0.377229
0.414821
0.453377
0.492488
0.531721
0.570638
0.608815
0.645859
0.681428
0.715233
0.747053
0.776732
0.804181
0.829367
0.85231
0.873073
0.89175
0.908461
0.923341
0.936534
0.948187
0.958445
0.967448
0.97533
0.982215
0.988217
0.99344
0.997977
1.00215
1.00706
1.01313
1.02064
1.02994
1.04144
1.05566
1.07326
1.09502
1.12194
1.15524
1.19642
1.24735
1.31035
1.38827
1.48464
1.60382
1.75123
1.93355
2.15904
2.43791
2.78283
3.20941
3.737
4.38951
5.19653
6.19464
7.42908
8.95582
10.8441
13.1794
16.0677
19.64
24.058
29.5222
36.2803
44.6385
54.9758
67.7608
83.5731
103.13
127.317
157.231
194.228
239.985
296.578
366.57
453.135
453.135
366.57
296.578
239.985
194.228
157.231
127.316
103.129
83.5731
67.7608
54.9758
44.6385
36.2803
29.5222
24.058
19.6399
16.0677
13.1794
10.844
8.9558
7.42906
6.19462
5.19651
4.38949
3.73698
3.20939
2.78281
2.4379
2.15902
1.93353
1.75122
1.60381
1.48462
1.38825
1.31034
1.24734
1.19641
1.15522
1.12193
1.09501
1.07325
1.05566
1.04143
1.02994
1.02064
1.01313
1.00706
1.00215
0.998001
0.993462
0.988237
0.982234
0.975348
0.967466
0.958461
0.948203
0.936549
0.923356
0.908475
0.891764
0.873086
0.852323
0.829379
0.804193
0.776743
0.747063
0.715242
0.681436
0.645867
0.608822
0.570644
0.531726
0.492492
0.453379
0.414822
0.377229
0.340971
0.306365
0.273665
0.243063
0.214679
0.188577
0.164763
0.143193
0.123791
0.106447
0.091033
0.0774098
0.0654311
0.0549505
0.0458249
0.0379177
0.0311005
0.0252543
0.02027
0.0160478
0.0124975
0.00953666
0.00709028
0.00508902
0.00346844
0.00216805
0.00113101
0.000304272
-0.00036109
-0.000909819
-0.00137957
-0.00179587
-0.00215522
-0.00243711
-0.00262982
-0.00272754
-0.00272754
-0.00262982
-0.00243711
-0.00215522
-0.00179587
-0.00137957
-0.000909819
-0.00036109
0.000304272
0.00113101
0.00216805
0.00346844
0.00508902
0.00709028
0.00953666
0.0124975
0.0160478
0.02027
0.0252543
0.0311005
0.0379177
0.0458249
0.0549505
0.0654311
0.0774098
0.091033
0.106447
0.123791
0.143193
0.164763
0.188577
0.214679
0.243063
0.273665
0.306365
0.340971
0.377229
0.414822
0.453379
0.492492
0.531726
0.570644
0.608822
0.645867
0.681436
0.715242
0.747063
0.776743
0.804193
0.829379
0.852323
0.873086
0.891764
0.908475
0.923356
0.936549
0.948203
0.958461
0.967466
0.975348
0.982234
0.988237
0.993462
0.998001
1.00215
1.00706
1.01313
1.02064
1.02994
1.04143
1.05566
1.07325
1.09501
1.12193
1.15522
1.19641
1.24734
1.31034
1.38825
1.48462
1.60381
1.75122
1.93353
2.15902
2.4379
2.78281
3.20939
3.73698
4.38949
5.19651
6.19462
7.42906
8.9558
10.844
13.1794
16.0677
19.6399
24.058
29.5222
36.2803
44.6385
54.9758
67.7608
83.5731
103.129
127.316
157.231
194.228
239.985
296.578
366.57
453.135
453.135
366.57
296.578
239.985
194.228
157.231
127.316
103.129
83.5731
67.7608
54.9758
44.6385
36.2802
29.5222
24.058
19.6399
16.0677
13.1794
10.844
8.95578
7.42904
6.1946
5.19649
4.38947
3.73696
3.20937
2.78279
2.43788
2.159
1.93352
1.7512
1.60379
1.48461
1.38824
1.31032
1.24733
1.19639
1.15521
1.12192
1.095
1.07324
1.05565
1.04143
1.02993
1.02064
1.01313
1.00706
1.00216
0.99803
0.993491
0.988264
0.98226
0.975372
0.967488
0.958483
0.948223
0.936569
0.923374
0.908493
0.891781
0.873102
0.852339
0.829394
0.804207
0.776757
0.747076
0.715254
0.681447
0.645877
0.60883
0.570652
0.531732
0.492497
0.453383
0.414824
0.37723
0.34097
0.306362
0.273661
0.243057
0.214671
0.188568
0.16475
0.143179
0.123773
0.106426
0.0910086
0.0773811
0.0653972
0.0549103
0.0457771
0.0378605
0.0310319
0.0251717
0.0201701
0.0159269
0.012351
0.00935943
0.00687657
0.00483266
0.00316301
0.00180704
0.00070771
-0.000188744
-0.000933069
-0.00156871
-0.00213107
-0.00262567
-0.00303738
-0.00335531
-0.00357165
-0.00368116
-0.00368116
-0.00357165
-0.00335531
-0.00303738
-0.00262567
-0.00213107
-0.00156871
-0.000933069
-0.000188744
0.00070771
0.00180704
0.00316301
0.00483266
0.00687657
0.00935943
0.012351
0.0159269
0.0201701
0.0251717
0.0310319
0.0378605
0.0457771
0.0549103
0.0653972
0.0773811
0.0910086
0.106426
0.123773
0.143179
0.16475
0.188568
0.214671
0.243057
0.273661
0.306362
0.34097
0.37723
0.414824
0.453383
0.492497
0.531732
0.570652
0.60883
0.645877
0.681447
0.715254
0.747076
0.776757
0.804207
0.829394
0.852339
0.873102
0.891781
0.908493
0.923374
0.936569
0.948223
0.958483
0.967488
0.975372
0.98226
0.988264
0.993491
0.99803
1.00216
1.00706
1.01313
1.02064
1.02993
1.04143
1.05565
1.07324
1.095
1.12192
1.15521
1.19639
1.24733
1.31032
1.38824
1.48461
1.60379
1.7512
1.93352
2.159
2.43788
2.78279
3.20937
3.73696
4.38947
5.19649
6.1946
7.42904
8.95578
10.844
13.1794
16.0677
19.6399
24.058
29.5222
36.2802
44.6385
54.9758
67.7608
83.5731
103.129
127.316
157.231
194.228
239.985
296.578
366.57
453.135
453.135
366.57
296.578
239.985
194.228
157.231
127.316
103.129
83.5731
67.7608
54.9758
44.6384
36.2802
29.5222
24.058
19.6399
16.0677
13.1794
10.844
8.95576
7.42902
6.19458
5.19647
4.38946
3.73694
3.20935
2.78277
2.43786
2.15898
1.9335
1.75119
1.60378
1.48459
1.38823
1.31031
1.24731
1.19638
1.1552
1.12191
1.095
1.07324
1.05564
1.04142
1.02993
1.02064
1.01313
1.00706
1.00218
0.998063
0.993529
0.988301
0.982294
0.975404
0.967518
0.958511
0.948249
0.936593
0.923398
0.908515
0.891802
0.873123
0.852358
0.829413
0.804225
0.776773
0.747091
0.715269
0.681461
0.645889
0.608841
0.570661
0.531741
0.492504
0.453388
0.414828
0.377232
0.34097
0.30636
0.273657
0.24305
0.214662
0.188556
0.164735
0.14316
0.123751
0.106399
0.0909768
0.0773431
0.0653519
0.0548562
0.0457122
0.0377826
0.0309379
0.0250581
0.0200325
0.0157601
0.0121489
0.00911518
0.00658256
0.00448093
0.00274543
0.00131547
0.000133646
-0.000854796
-0.00169641
-0.0024379
-0.00309682
-0.00366576
-0.0041358
-0.00449743
-0.00474294
-0.00486703
-0.00486703
-0.00474294
-0.00449743
-0.0041358
-0.00366576
-0.00309682
-0.0024379
-0.00169641
-0.000854796
0.000133646
0.00131547
0.00274543
0.00448093
0.00658256
0.00911518
0.0121489
0.0157601
0.0200325
0.0250581
0.0309379
0.0377826
0.0457122
0.0548562
0.0653519
0.0773431
0.0909768
0.106399
0.123751
0.14316
0.164735
0.188556
0.214662
0.24305
0.273657
0.30636
0.34097
0.377232
0.414828
0.453388
0.492504
0.531741
0.570661
0.608841
0.645889
0.681461
0.715269
0.747091
0.776773
0.804225
0.829413
0.852358
0.873123
0.891802
0.908515
0.923398
0.936593
0.948249
0.958511
0.967518
0.975404
0.982294
0.988301
0.993529
0.998063
1.00218
1.00706
1.01313
1.02064
1.02993
1.04142
1.05564
1.07324
1.095
1.12191
1.1552
1.19638
1.24731
1.31031
1.38823
1.48459
1.60378
1.75119
1.9335
2.15898
2.43786
2.78277
3.20935
3.73694
4.38946
5.19647
6.19458
7.42902
8.95576
10.844
13.1794
16.0677
19.6399
24.058
29.5222
36.2802
44.6384
54.9758
67.7608
83.5731
103.129
127.316
157.231
194.228
239.985
296.578
366.57
453.135
453.135
366.57
296.578
239.985
194.228
157.231
127.316
103.129
83.573
67.7608
54.9757
44.6384
36.2802
29.5222
24.058
19.6399
16.0677
13.1793
10.844
8.95574
7.42901
6.19456
5.19646
4.38944
3.73692
3.20934
2.78275
2.43784
2.15897
1.93348
1.75117
1.60376
1.48458
1.38821
1.3103
1.2473
1.19637
1.15519
1.1219
1.09499
1.07323
1.05564
1.04142
1.02993
1.02064
1.01313
1.00707
1.00222
0.998099
0.993579
0.988348
0.982338
0.975446
0.967557
0.958548
0.948284
0.936626
0.923429
0.908545
0.89183
0.873149
0.852383
0.829436
0.804247
0.776795
0.747111
0.715287
0.681478
0.645905
0.608856
0.570674
0.531752
0.492513
0.453396
0.414833
0.377235
0.340971
0.306358
0.273652
0.243042
0.214651
0.188541
0.164717
0.143137
0.123722
0.106364
0.0909348
0.0772926
0.0652912
0.0547832
0.0456243
0.0376765
0.0308097
0.0249028
0.0198443
0.0155321
0.0118731
0.00878267
0.00618372
0.00400593
0.00218455
0.000659108
-0.000626437
-0.00171784
-0.00267504
-0.00353192
-0.00429147
-0.00494704
-0.00548734
-0.00590206
-0.00618314
-0.00632507
-0.00632507
-0.00618314
-0.00590206
-0.00548734
-0.00494704
-0.00429147
-0.00353192
-0.00267504
-0.00171784
-0.000626437
0.000659108
0.00218455
0.00400593
0.00618372
0.00878267
0.0118731
0.0155321
0.0198443
0.0249028
0.0308097
0.0376765
0.0456243
0.0547832
0.0652912
0.0772926
0.0909348
0.106364
0.123722
0.143137
0.164717
0.188541
0.214651
0.243042
0.273652
0.306358
0.340971
0.377235
0.414833
0.453396
0.492513
0.531752
0.570674
0.608856
0.645905
0.681478
0.715287
0.747111
0.776795
0.804247
0.829436
0.852383
0.873149
0.89183
0.908545
0.923429
0.936626
0.948284
0.958548
0.967557
0.975446
0.982338
0.988348
0.993579
0.998099
1.00222
1.00707
1.01313
1.02064
1.02993
1.04142
1.05564
1.07323
1.09499
1.1219
1.15519
1.19637
1.2473
1.3103
1.38821
1.48458
1.60376
1.75117
1.93348
2.15897
2.43784
2.78275
3.20934
3.73692
4.38944
5.19646
6.19456
7.42901
8.95574
10.844
13.1793
16.0677
19.6399
24.058
29.5222
36.2802
44.6384
54.9757
67.7608
83.573
103.129
127.316
157.231
194.228
239.985
296.578
366.57
453.135
453.135
366.57
296.578
239.985
194.228
157.231
127.316
103.129
83.573
67.7607
54.9757
44.6384
36.2802
29.5221
24.0579
19.6399
16.0676
13.1793
10.844
8.95573
7.42899
6.19455
5.19644
4.38942
3.73691
3.20932
2.78274
2.43783
2.15895
1.93347
1.75115
1.60375
1.48456
1.3882
1.31028
1.24729
1.19636
1.15518
1.12189
1.09498
1.07322
1.05564
1.04142
1.02993
1.02065
1.01315
1.0071
1.00228
0.998143
0.993641
0.988409
0.982397
0.975501
0.967609
0.958596
0.94833
0.936669
0.923469
0.908583
0.891866
0.873183
0.852415
0.829467
0.804276
0.776822
0.747137
0.715311
0.6815
0.645926
0.608875
0.570691
0.531767
0.492526
0.453406
0.414841
0.37724
0.340973
0.306357
0.273647
0.243033
0.214638
0.188522
0.164693
0.143107
0.123685
0.106318
0.0908789
0.0772251
0.0652097
0.0546847
0.0455054
0.0375327
0.0306357
0.0246922
0.0195894
0.0152239
0.0115015
0.00833663
0.0056517
0.00337657
0.00144736
-0.000190223
-0.00157695
-0.00278887
-0.00388143
-0.00487061
-0.00575161
-0.00651105
-0.00713568
-0.00761433
-0.00793835
-0.00810185
-0.00810185
-0.00793835
-0.00761433
-0.00713568
-0.00651105
-0.00575161
-0.00487061
-0.00388143
-0.00278887
-0.00157695
-0.000190223
0.00144736