/*--------------------------------*- C++ -*----------------------------------*\
| =========                 |                                                 |
| \\      /  F ield         | OpenFOAM: The Open Source CFD Toolbox           |
|  \\    /   O peration     | Version:  2112                                  |
|   \\  /    A nd           | Website:  www.openfoam.com                      |
|    \\/     M anipulation  |                                                 |
\*---------------------------------------------------------------------------*/
FoamFile
{
    version     2.0;
    format      ascii;
    arch        "LSB;label=32;scalar=64";
    class       volScalarField;
    location    "0";
    object      Cz;
}
// * * * * * * * * * * * * * * * * * * * * * * * * * * * * * * * * * * * * * //

dimensions      [0 1 0 0 0 0 0];

internalField   nonuniform List<scalar> 
14336
(
-1.75636e-06
-1.75636e-06
-1.75636e-06
-1.75637e-06
-1.75637e-06
-1.75638e-06
-1.75638e-06
-1.75639e-06
-1.7564e-06
-1.75641e-06
-1.75643e-06
-1.75644e-06
-1.75647e-06
-1.7565e-06
-1.75653e-06
-1.75657e-06
-1.75663e-06
-1.75669e-06
-1.75677e-06
-1.75687e-06
-1.757e-06
-1.75715e-06
-1.75734e-06
-1.75758e-06
-1.75787e-06
-1.75823e-06
-1.75868e-06
-1.75923e-06
-1.75991e-06
-1.76075e-06
-1.76179e-06
-1.76308e-06
-1.76468e-06
-1.76665e-06
-1.76909e-06
-1.77211e-06
-1.77584e-06
-1.78046e-06
-1.78617e-06
-1.79323e-06
-1.80196e-06
-1.81276e-06
-1.82612e-06
-1.84264e-06
-1.86308e-06
-1.88836e-06
-1.91963e-06
-1.95481e-06
-0.000299791
-0.000939786
-0.00167202
-0.00250758
-0.00345847
-0.00453723
-0.00575679
-0.00713005
-0.00866949
-0.0103866
-0.0122911
-0.0143904
-0.0166883
-0.0191843
-0.0218727
-0.0247409
-0.0277694
-0.0309302
-0.0341865
-0.0374927
-0.0407942
-0.0440283
-0.0471265
-0.0500162
-0.0526247
-0.0548831
-0.0567306
-0.058119
-0.0590159
-0.0594065
-0.0592943
-0.0587003
-0.0576598
-0.0562194
-0.0544329
-0.0523578
-0.0500516
-0.0475693
-0.0449614
-0.0422727
-0.039542
-0.0368018
-0.034079
-0.0313952
-0.0287677
-0.0262106
-0.0237351
-0.021351
-0.019067
-0.0168919
-0.0148343
-0.0129033
-0.0111073
-0.00945364
-0.00794712
-0.00658911
-0.00537706
-0.00430475
-0.00336302
-0.00254083
-0.00182623
-0.00120723
-0.000672333
-0.000211083
0.000211083
0.000672333
0.00120723
0.00182623
0.00254083
0.00336302
0.00430475
0.00537706
0.00658911
0.00794712
0.00945364
0.0111073
0.0129033
0.0148343
0.0168919
0.019067
0.021351
0.0237351
0.0262106
0.0287677
0.0313952
0.034079
0.0368018
0.039542
0.0422727
0.0449614
0.0475693
0.0500516
0.0523578
0.0544329
0.0562194
0.0576598
0.0587003
0.0592943
0.0594065
0.0590159
0.058119
0.0567306
0.0548831
0.0526247
0.0500162
0.0471265
0.0440283
0.0407942
0.0374927
0.0341865
0.0309302
0.0277694
0.0247409
0.0218727
0.0191843
0.0166883
0.0143904
0.0122911
0.0103866
0.00866948
0.00713005
0.00575679
0.00453723
0.00345847
0.00250758
0.00167202
0.000939786
0.000299845
2.06187e-06
2.02667e-06
1.9954e-06
1.97012e-06
1.94969e-06
1.93316e-06
1.9198e-06
1.909e-06
1.90027e-06
1.89321e-06
1.8875e-06
1.88289e-06
1.87915e-06
1.87614e-06
1.8737e-06
1.87172e-06
1.87013e-06
1.86884e-06
1.8678e-06
1.86695e-06
1.86627e-06
1.86572e-06
1.86527e-06
1.86491e-06
1.86462e-06
1.86439e-06
1.8642e-06
1.86404e-06
1.86392e-06
1.86382e-06
1.86374e-06
1.86367e-06
1.86362e-06
1.86357e-06
1.86354e-06
1.86351e-06
1.86349e-06
1.86347e-06
1.86346e-06
1.86344e-06
1.86343e-06
1.86343e-06
1.86342e-06
1.86341e-06
1.86341e-06
1.86341e-06
1.8634e-06
1.8634e-06
-5.9482e-06
-5.94821e-06
-5.94823e-06
-5.94825e-06
-5.94827e-06
-5.9483e-06
-5.94834e-06
-5.94839e-06
-5.94845e-06
-5.94853e-06
-5.94862e-06
-5.94873e-06
-5.94887e-06
-5.94905e-06
-5.94926e-06
-5.94953e-06
-5.94986e-06
-5.95026e-06
-5.95076e-06
-5.95139e-06
-5.95216e-06
-5.95311e-06
-5.95428e-06
-5.95574e-06
-5.95754e-06
-5.95976e-06
-5.96252e-06
-5.96592e-06
-5.97013e-06
-5.97534e-06
-5.98178e-06
-5.98975e-06
-5.9996e-06
-6.01179e-06
-6.02686e-06
-6.04551e-06
-6.06856e-06
-6.09708e-06
-6.13236e-06
-6.17599e-06
-6.22995e-06
-6.2967e-06
-6.37927e-06
-6.4814e-06
-6.60773e-06
-6.764e-06
-6.95731e-06
-7.18139e-06
-0.000303901
-0.000943666
-0.00167575
-0.00251119
-0.00346197
-0.00454065
-0.00576015
-0.00713337
-0.00867278
-0.0103899
-0.0122944
-0.0143937
-0.0166916
-0.0191878
-0.0218761
-0.0247445
-0.027773
-0.0309339
-0.0341904
-0.0374966
-0.0407982
-0.0440324
-0.0471307
-0.0500205
-0.052629
-0.0548874
-0.056735
-0.0581235
-0.0590203
-0.0594108
-0.0592986
-0.0587045
-0.0576638
-0.0562232
-0.0544366
-0.0523613
-0.0500549
-0.0475723
-0.0449641
-0.0422752
-0.0395442
-0.0368037
-0.0340806
-0.0313965
-0.0287687
-0.0262113
-0.0237355
-0.0213511
-0.0190668
-0.0168914
-0.0148336
-0.0129024
-0.0111062
-0.00945249
-0.00794592
-0.0065879
-0.00537588
-0.00430363
-0.00336196
-0.00253982
-0.00182526
-0.00120626
-0.000671329
-0.000210079
0.000210079
0.000671329
0.00120626
0.00182526
0.00253982
0.00336196
0.00430363
0.00537588
0.0065879
0.00794592
0.00945249
0.0111062
0.0129024
0.0148336
0.0168914
0.0190668
0.0213511
0.0237355
0.0262113
0.0287687
0.0313965
0.0340806
0.0368037
0.0395442
0.0422752
0.0449641
0.0475723
0.0500549
0.0523613
0.0544366
0.0562232
0.0576638
0.0587045
0.0592986
0.0594108
0.0590203
0.0581235
0.056735
0.0548874
0.052629
0.0500205
0.0471307
0.0440324
0.0407982
0.0374966
0.0341904
0.0309339
0.027773
0.0247445
0.0218761
0.0191878
0.0166916
0.0143937
0.0122944
0.0103899
0.00867278
0.00713337
0.00576015
0.00454065
0.00346197
0.00251119
0.00167575
0.000943666
0.000303956
7.28847e-06
7.06436e-06
6.87104e-06
6.71477e-06
6.58844e-06
6.48631e-06
6.40375e-06
6.337e-06
6.28303e-06
6.2394e-06
6.20413e-06
6.17561e-06
6.15255e-06
6.13391e-06
6.11883e-06
6.10665e-06
6.09679e-06
6.08883e-06
6.08239e-06
6.07718e-06
6.07297e-06
6.06956e-06
6.06681e-06
6.06458e-06
6.06278e-06
6.06133e-06
6.06015e-06
6.0592e-06
6.05843e-06
6.05781e-06
6.05731e-06
6.0569e-06
6.05657e-06
6.0563e-06
6.05609e-06
6.05592e-06
6.05578e-06
6.05566e-06
6.05557e-06
6.0555e-06
6.05544e-06
6.05539e-06
6.05535e-06
6.05532e-06
6.05529e-06
6.05527e-06
6.05525e-06
6.05524e-06
-1.1465e-05
-1.14651e-05
-1.14651e-05
-1.14652e-05
-1.14653e-05
-1.14654e-05
-1.14655e-05
-1.14656e-05
-1.14658e-05
-1.14661e-05
-1.14664e-05
-1.14667e-05
-1.14672e-05
-1.14677e-05
-1.14684e-05
-1.14692e-05
-1.14703e-05
-1.14716e-05
-1.14732e-05
-1.14751e-05
-1.14776e-05
-1.14806e-05
-1.14843e-05
-1.1489e-05
-1.14947e-05
-1.15018e-05
-1.15105e-05
-1.15213e-05
-1.15347e-05
-1.15512e-05
-1.15717e-05
-1.1597e-05
-1.16283e-05
-1.1667e-05
-1.17149e-05
-1.17741e-05
-1.18473e-05
-1.19379e-05
-1.205e-05
-1.21886e-05
-1.236e-05
-1.25721e-05
-1.28344e-05
-1.31589e-05
-1.35603e-05
-1.40569e-05
-1.46712e-05
-1.53936e-05
-0.000311359
-0.000950672
-0.00168239
-0.00251751
-0.00346802
-0.00454648
-0.00576579
-0.00713885
-0.00867815
-0.0103951
-0.0122996
-0.0143989
-0.0166968
-0.0191929
-0.0218813
-0.0247497
-0.0277783
-0.0309392
-0.0341957
-0.0375021
-0.0408037
-0.044038
-0.0471364
-0.0500262
-0.0526349
-0.0548933
-0.0567409
-0.0581294
-0.0590262
-0.0594167
-0.0593044
-0.0587102
-0.0576695
-0.0562288
-0.054442
-0.0523665
-0.05006
-0.0475772
-0.0449689
-0.0422798
-0.0395486
-0.036808
-0.0340848
-0.0314005
-0.0287727
-0.0262152
-0.0237394
-0.021355
-0.0190708
-0.0168954
-0.0148376
-0.0129063
-0.0111102
-0.0094564
-0.00794973
-0.00659155
-0.00537931
-0.00430678
-0.00336479
-0.00254226
-0.00182726
-0.00120778
-0.000672319
-0.000210499
0.000210499
0.000672319
0.00120778
0.00182726
0.00254226
0.00336479
0.00430678
0.00537931
0.00659155
0.00794973
0.0094564
0.0111102
0.0129063
0.0148376
0.0168954
0.0190708
0.021355
0.0237394
0.0262152
0.0287727
0.0314005
0.0340848
0.036808
0.0395486
0.0422798
0.0449689
0.0475772
0.05006
0.0523665
0.054442
0.0562288
0.0576695
0.0587102
0.0593044
0.0594167
0.0590262
0.0581294
0.0567409
0.0548933
0.0526349
0.0500262
0.0471364
0.044038
0.0408037
0.0375021
0.0341957
0.0309392
0.0277783
0.0247497
0.0218813
0.0191929
0.0166968
0.0143989
0.0122996
0.0103951
0.00867815
0.00713885
0.00576579
0.00454648
0.00346802
0.00251751
0.00168239
0.000950672
0.000311413
1.55008e-05
1.47782e-05
1.41639e-05
1.36674e-05
1.32659e-05
1.29415e-05
1.26791e-05
1.24671e-05
1.22956e-05
1.2157e-05
1.2045e-05
1.19544e-05
1.18811e-05
1.18219e-05
1.1774e-05
1.17353e-05
1.1704e-05
1.16787e-05
1.16583e-05
1.16417e-05
1.16284e-05
1.16175e-05
1.16088e-05
1.16017e-05
1.1596e-05
1.15914e-05
1.15877e-05
1.15846e-05
1.15822e-05
1.15802e-05
1.15786e-05
1.15773e-05
1.15763e-05
1.15754e-05
1.15748e-05
1.15742e-05
1.15738e-05
1.15734e-05
1.15731e-05
1.15729e-05
1.15727e-05
1.15725e-05
1.15724e-05
1.15723e-05
1.15722e-05
1.15722e-05
1.15721e-05
1.15721e-05
-1.87256e-05
-1.87257e-05
-1.87258e-05
-1.8726e-05
-1.87262e-05
-1.87264e-05
-1.87267e-05
-1.87271e-05
-1.87275e-05
-1.87281e-05
-1.87288e-05
-1.87296e-05
-1.87307e-05
-1.8732e-05
-1.87336e-05
-1.87355e-05
-1.8738e-05
-1.8741e-05
-1.87448e-05
-1.87494e-05
-1.87551e-05
-1.87622e-05
-1.8771e-05
-1.87818e-05
-1.87952e-05
-1.88118e-05
-1.88324e-05
-1.88577e-05
-1.88891e-05
-1.89279e-05
-1.89759e-05
-1.90353e-05
-1.91088e-05
-1.91996e-05
-1.93119e-05
-1.94509e-05
-1.96228e-05
-1.98354e-05
-2.00983e-05
-2.04236e-05
-2.0826e-05
-2.13237e-05
-2.19394e-05
-2.27011e-05
-2.36433e-05
-2.48089e-05
-2.62508e-05
-2.79617e-05
-0.000323412
-0.000961935
-0.00169298
-0.00252752
-0.00347753
-0.00455555
-0.0057745
-0.00714725
-0.00868629
-0.0104031
-0.0123074
-0.0144065
-0.0167043
-0.0192004
-0.0218887
-0.0247571
-0.0277857
-0.0309467
-0.0342032
-0.0375096
-0.0408113
-0.0440457
-0.0471441
-0.050034
-0.0526427
-0.0549012
-0.0567489
-0.0581374
-0.0590342
-0.0594247
-0.0593124
-0.0587181
-0.0576773
-0.0562365
-0.0544497
-0.0523741
-0.0500675
-0.0475847
-0.0449763
-0.0422872
-0.039556
-0.0368154
-0.0340922
-0.0314081
-0.0287804
-0.0262231
-0.0237475
-0.0213633
-0.0190794
-0.0169042
-0.0148467
-0.0129155
-0.0111194
-0.00946552
-0.0079586
-0.00660004
-0.00538728
-0.00431412
-0.0033714
-0.00254807
-0.00183221
-0.00121183
-0.000675477
-0.000212528
0.000212528
0.000675477
0.00121183
0.00183221
0.00254807
0.0033714
0.00431412
0.00538728
0.00660004
0.0079586
0.00946552
0.0111194
0.0129155
0.0148467
0.0169042
0.0190794
0.0213633
0.0237475
0.0262231
0.0287804
0.0314081
0.0340922
0.0368154
0.039556
0.0422872
0.0449763
0.0475847
0.0500675
0.0523741
0.0544497
0.0562365
0.0576773
0.0587181
0.0593124
0.0594247
0.0590342
0.0581374
0.0567489
0.0549012
0.0526427
0.050034
0.0471441
0.0440457
0.0408113
0.0375096
0.0342032
0.0309467
0.0277857
0.0247571
0.0218887
0.0192004
0.0167043
0.0144065
0.0123074
0.0104031
0.00868629
0.00714725
0.0057745
0.00455555
0.00347753
0.00252752
0.00169298
0.000961935
0.000323466
2.80689e-05
2.63579e-05
2.49159e-05
2.37503e-05
2.28081e-05
2.20465e-05
2.14308e-05
2.0933e-05
2.05307e-05
2.02054e-05
1.99424e-05
1.97298e-05
1.95579e-05
1.9419e-05
1.93066e-05
1.92158e-05
1.91424e-05
1.9083e-05
1.9035e-05
1.89962e-05
1.89648e-05
1.89394e-05
1.89189e-05
1.89023e-05
1.88889e-05
1.8878e-05
1.88693e-05
1.88622e-05
1.88564e-05
1.88518e-05
1.88481e-05
1.8845e-05
1.88426e-05
1.88406e-05
1.8839e-05
1.88377e-05
1.88367e-05
1.88358e-05
1.88351e-05
1.88346e-05
1.88341e-05
1.88338e-05
1.88335e-05
1.88332e-05
1.8833e-05
1.88329e-05
1.88328e-05
1.88327e-05
-2.82812e-05
-2.82814e-05
-2.82817e-05
-2.8282e-05
-2.82823e-05
-2.82828e-05
-2.82834e-05
-2.82841e-05
-2.8285e-05
-2.82861e-05
-2.82875e-05
-2.82892e-05
-2.82913e-05
-2.82939e-05
-2.82971e-05
-2.83011e-05
-2.8306e-05
-2.83121e-05
-2.83196e-05
-2.83289e-05
-2.83404e-05
-2.83546e-05
-2.83722e-05
-2.83939e-05
-2.84208e-05
-2.8454e-05
-2.84952e-05
-2.8546e-05
-2.8609e-05
-2.86868e-05
-2.8783e-05
-2.89021e-05
-2.90493e-05
-2.92314e-05
-2.94566e-05
-2.97352e-05
-3.00798e-05
-3.05061e-05
-3.10333e-05
-3.16856e-05
-3.24924e-05
-3.34904e-05
-3.4725e-05
-3.62523e-05
-3.81417e-05
-4.0479e-05
-4.33703e-05
-4.68288e-05
-0.000341946
-0.000979158
-0.00170907
-0.00254263
-0.00349179
-0.00456909
-0.0057874
-0.00715962
-0.00869821
-0.0104146
-0.0123186
-0.0144175
-0.0167151
-0.019211
-0.0218992
-0.0247675
-0.0277961
-0.030957
-0.0342135
-0.0375199
-0.0408216
-0.0440561
-0.0471546
-0.0500446
-0.0526533
-0.0549119
-0.0567596
-0.0581481
-0.0590449
-0.0594354
-0.0593232
-0.0587289
-0.0576881
-0.0562473
-0.0544605
-0.0523849
-0.0500783
-0.0475956
-0.0449873
-0.0422983
-0.0395673
-0.036827
-0.0341041
-0.0314203
-0.0287931
-0.0262362
-0.0237612
-0.0213775
-0.0190941
-0.0169195
-0.0148623
-0.0129315
-0.0111355
-0.00948144
-0.00797414
-0.00661495
-0.00540137
-0.00432719
-0.00338333
-0.00255879
-0.00184173
-0.00122024
-0.000683042
-0.000217462
0.000217462
0.000683042
0.00122024
0.00184173
0.00255879
0.00338333
0.00432719
0.00540137
0.00661495
0.00797414
0.00948144
0.0111355
0.0129315
0.0148623
0.0169195
0.0190941
0.0213775
0.0237612
0.0262362
0.0287931
0.0314203
0.0341041
0.036827
0.0395673
0.0422983
0.0449873
0.0475956
0.0500783
0.0523849
0.0544605
0.0562473
0.0576881
0.0587289
0.0593232
0.0594354
0.0590449
0.0581481
0.0567596
0.0549119
0.0526533
0.0500446
0.0471546
0.0440561
0.0408216
0.0375199
0.0342135
0.030957
0.0277961
0.0247675
0.0218992
0.019211
0.0167151
0.0144175
0.0123186
0.0104146
0.00869821
0.00715962
0.0057874
0.00456909
0.00349179
0.00254263
0.00170907
0.000979158
0.000342001
4.6936e-05
4.34774e-05
4.0586e-05
3.82487e-05
3.63593e-05
3.4832e-05
3.35974e-05
3.25994e-05
3.17926e-05
3.11404e-05
3.06131e-05
3.01869e-05
2.98423e-05
2.95637e-05
2.93384e-05
2.91563e-05
2.90091e-05
2.88901e-05
2.87938e-05
2.8716e-05
2.86531e-05
2.86022e-05
2.85611e-05
2.85278e-05
2.85009e-05
2.84792e-05
2.84616e-05
2.84474e-05
2.84359e-05
2.84266e-05
2.84191e-05
2.8413e-05
2.84081e-05
2.84042e-05
2.84009e-05
2.83984e-05
2.83963e-05
2.83946e-05
2.83932e-05
2.83921e-05
2.83912e-05
2.83905e-05
2.83899e-05
2.83894e-05
2.8389e-05
2.83887e-05
2.83884e-05
2.83882e-05
-4.08572e-05
-4.08575e-05
-4.0858e-05
-4.08586e-05
-4.08593e-05
-4.08601e-05
-4.08612e-05
-4.08625e-05
-4.08642e-05
-4.08662e-05
-4.08687e-05
-4.08718e-05
-4.08756e-05
-4.08803e-05
-4.08862e-05
-4.08934e-05
-4.09024e-05
-4.09135e-05
-4.09272e-05
-4.09441e-05
-4.09651e-05
-4.0991e-05
-4.1023e-05
-4.10627e-05
-4.11117e-05
-4.11723e-05
-4.12473e-05
-4.13401e-05
-4.14548e-05
-4.15967e-05
-4.17722e-05
-4.19893e-05
-4.22577e-05
-4.25898e-05
-4.30006e-05
-4.35086e-05
-4.4137e-05
-4.49144e-05
-4.58759e-05
-4.70654e-05
-4.85368e-05
-5.0357e-05
-5.26086e-05
-5.53941e-05
-5.884e-05
-6.31028e-05
-6.8376e-05
-7.47423e-05
-0.000369699
-0.00100479
-0.00173287
-0.00256486
-0.00351266
-0.00458879
-0.0058061
-0.00717746
-0.0087153
-0.0104311
-0.0123345
-0.014433
-0.0167302
-0.0192258
-0.0219138
-0.0247819
-0.0278103
-0.0309712
-0.0342277
-0.0375341
-0.0408358
-0.0440702
-0.0471688
-0.0500588
-0.0526676
-0.0549262
-0.0567739
-0.0581625
-0.0590595
-0.05945
-0.0593378
-0.0587436
-0.0577029
-0.0562622
-0.0544754
-0.0524001
-0.0500936
-0.0476111
-0.0450031
-0.0423145
-0.0395839
-0.0368441
-0.0341218
-0.0314388
-0.0288123
-0.0262564
-0.0237823
-0.0213997
-0.0191172
-0.0169435
-0.0148871
-0.0129569
-0.0111611
-0.00950693
-0.00799913
-0.00663909
-0.00542434
-0.00434878
-0.00340344
-0.00257748
-0.00185926
-0.00123722
-0.000700405
-0.000227668
0.000227668
0.000700405
0.00123722
0.00185926
0.00257748
0.00340344
0.00434878
0.00542434
0.00663909
0.00799913
0.00950693
0.0111611
0.0129569
0.0148871
0.0169435
0.0191172
0.0213997
0.0237823
0.0262564
0.0288123
0.0314388
0.0341218
0.0368441
0.0395839
0.0423145
0.0450031
0.0476111
0.0500936
0.0524001
0.0544754
0.0562622
0.0577029
0.0587436
0.0593378
0.05945
0.0590595
0.0581625
0.0567739
0.0549262
0.0526676
0.0500588
0.0471688
0.0440702
0.0408358
0.0375341
0.0342277
0.0309712
0.0278103
0.0247819
0.0219138
0.0192258
0.0167302
0.014433
0.0123345
0.0104311
0.0087153
0.00717746
0.0058061
0.00458879
0.00351266
0.00256486
0.00173287
0.00100479
0.000369754
7.48496e-05
6.8483e-05
6.32098e-05
5.89471e-05
5.55012e-05
5.27157e-05
5.0464e-05
4.86438e-05
4.71724e-05
4.5983e-05
4.50214e-05
4.42441e-05
4.36157e-05
4.31076e-05
4.26969e-05
4.23648e-05
4.20963e-05
4.18792e-05
4.17037e-05
4.15618e-05
4.14471e-05
4.13544e-05
4.12794e-05
4.12187e-05
4.11697e-05
4.11301e-05
4.1098e-05
4.10721e-05
4.10511e-05
4.10342e-05
4.10205e-05
4.10094e-05
4.10005e-05
4.09932e-05
4.09874e-05
4.09826e-05
4.09788e-05
4.09757e-05
4.09732e-05
4.09712e-05
4.09696e-05
4.09682e-05
4.09672e-05
4.09663e-05
4.09656e-05
4.0965e-05
4.09646e-05
4.09642e-05
-5.74082e-05
-5.74089e-05
-5.74096e-05
-5.74106e-05
-5.74118e-05
-5.74133e-05
-5.74151e-05
-5.74174e-05
-5.74202e-05
-5.74236e-05
-5.74279e-05
-5.74332e-05
-5.74398e-05
-5.74479e-05
-5.74579e-05
-5.74703e-05
-5.74857e-05
-5.75046e-05
-5.75281e-05
-5.75571e-05
-5.7593e-05
-5.76374e-05
-5.76923e-05
-5.77601e-05
-5.78441e-05
-5.7948e-05
-5.80764e-05
-5.82353e-05
-5.84317e-05
-5.86747e-05
-5.89753e-05
-5.93471e-05
-5.98069e-05
-6.03756e-05
-6.10791e-05
-6.19493e-05
-6.30256e-05
-6.43571e-05
-6.60041e-05
-6.80414e-05
-7.05617e-05
-7.36795e-05
-7.75364e-05
-8.23077e-05
-8.82101e-05
-9.55116e-05
-0.000104544
-0.00011558
-0.000410563
-0.00104228
-0.00176752
-0.00259705
-0.00354274
-0.00461705
-0.00583279
-0.0072028
-0.0087395
-0.0104543
-0.0123569
-0.0144546
-0.0167513
-0.0192464
-0.021934
-0.0248018
-0.02783
-0.0309906
-0.034247
-0.0375532
-0.0408549
-0.0440894
-0.0471879
-0.0500779
-0.0526868
-0.0549455
-0.0567933
-0.058182
-0.059079
-0.0594697
-0.0593577
-0.0587636
-0.0577231
-0.0562826
-0.0544961
-0.0524211
-0.050115
-0.047633
-0.0450255
-0.0423376
-0.0396078
-0.0368689
-0.0341477
-0.0314659
-0.0288408
-0.0262864
-0.0238138
-0.0214328
-0.0191521
-0.0169799
-0.0149248
-0.0129955
-0.0112003
-0.00954612
-0.00803779
-0.00667672
-0.00546057
-0.00438344
-0.00343664
-0.00260974
-0.0018917
-0.00127192
-0.00073692
-0.000244795
0.000244795
0.00073692
0.00127192
0.0018917
0.00260974
0.00343664
0.00438344
0.00546057
0.00667672
0.00803779
0.00954612
0.0112003
0.0129955
0.0149248
0.0169799
0.0191521
0.0214328
0.0238138
0.0262864
0.0288408
0.0314659
0.0341477
0.0368689
0.0396078
0.0423376
0.0450255
0.047633
0.050115
0.0524211
0.0544961
0.0562826
0.0577231
0.0587636
0.0593577
0.0594697
0.059079
0.058182
0.0567933
0.0549455
0.0526868
0.0500779
0.0471879
0.0440894
0.0408549
0.0375532
0.034247
0.0309906
0.02783
0.0248018
0.021934
0.0192464
0.0167513
0.0144546
0.0123569
0.0104543
0.0087395
0.0072028
0.00583279
0.00461705
0.00354274
0.00259705
0.00176752
0.00104228
0.000410618
0.000115687
0.000104651
9.56187e-05
8.83171e-05
8.24147e-05
7.76434e-05
7.37865e-05
7.06688e-05
6.81485e-05
6.61111e-05
6.44641e-05
6.31327e-05
6.20563e-05
6.11862e-05
6.04827e-05
5.99139e-05
5.94541e-05
5.90824e-05
5.87818e-05
5.85388e-05
5.83423e-05
5.81834e-05
5.8055e-05
5.79511e-05
5.78672e-05
5.77993e-05
5.77444e-05
5.77e-05
5.76641e-05
5.76351e-05
5.76117e-05
5.75927e-05
5.75774e-05
5.7565e-05
5.75549e-05
5.75468e-05
5.75403e-05
5.7535e-05
5.75307e-05
5.75272e-05
5.75244e-05
5.75222e-05
5.75203e-05
5.75188e-05
5.75176e-05
5.75167e-05
5.75159e-05
5.75153e-05
-7.91908e-05
-7.91919e-05
-7.91931e-05
-7.91947e-05
-7.91967e-05
-7.91991e-05
-7.92021e-05
-7.92058e-05
-7.92104e-05
-7.92161e-05
-7.92231e-05
-7.92318e-05
-7.92425e-05
-7.92558e-05
-7.92723e-05
-7.92926e-05
-7.93177e-05
-7.93488e-05
-7.93872e-05
-7.94348e-05
-7.94936e-05
-7.95663e-05
-7.96562e-05
-7.97675e-05
-7.9905e-05
-8.00752e-05
-8.02856e-05
-8.05459e-05
-8.08679e-05
-8.12661e-05
-8.17586e-05
-8.23678e-05
-8.31212e-05
-8.40532e-05
-8.52059e-05
-8.66318e-05
-8.83957e-05
-9.05775e-05
-9.32764e-05
-9.66151e-05
-0.000100745
-0.000105855
-0.000112175
-0.000119994
-0.000129667
-0.000141632
-0.000156434
-0.000174813
-0.000470058
-0.00109646
-0.00181737
-0.00264317
-0.00358565
-0.00465718
-0.00587054
-0.00723851
-0.00877344
-0.0104867
-0.0123881
-0.0144847
-0.0167805
-0.0192748
-0.0219618
-0.024829
-0.0278568
-0.0310171
-0.0342732
-0.0375793
-0.0408808
-0.0441152
-0.0472137
-0.0501038
-0.0527127
-0.0549714
-0.0568194
-0.0582082
-0.0591054
-0.0594963
-0.0593845
-0.0587908
-0.0577506
-0.0563105
-0.0545245
-0.05245
-0.0501447
-0.0476635
-0.045057
-0.0423701
-0.0396417
-0.0369043
-0.0341848
-0.0315049
-0.028882
-0.0263299
-0.0238599
-0.0214815
-0.0192033
-0.0170336
-0.0149807
-0.013053
-0.0112589
-0.00960505
-0.00809632
-0.00673427
-0.00551683
-0.00443857
-0.00349144
-0.00266608
-0.00195324
-0.00134252
-0.000800581
-0.00026864
0.00026864
0.000800581
0.00134252
0.00195324
0.00266608
0.00349144
0.00443857
0.00551683
0.00673427
0.00809632
0.00960505
0.0112589
0.013053
0.0149807
0.0170336
0.0192033
0.0214815
0.0238599
0.0263299
0.028882
0.0315049
0.0341848
0.0369043
0.0396417
0.0423701
0.045057
0.0476635
0.0501447
0.05245
0.0545245
0.0563105
0.0577506
0.0587908
0.0593845
0.0594963
0.0591054
0.0582082
0.0568194
0.0549714
0.0527127
0.0501038
0.0472137
0.0441152
0.0408808
0.0375793
0.0342732
0.0310171
0.0278568
0.024829
0.0219618
0.0192748
0.0167805
0.0144847
0.0123881
0.0104867
0.00877344
0.00723851
0.00587054
0.00465718
0.00358565
0.00264317
0.00181737
0.00109646
0.000470114
0.00017492
0.000156541
0.000141739
0.000129774
0.000120101
0.000112282
0.000105962
0.000100852
9.67222e-05
9.33835e-05
9.06845e-05
8.85027e-05
8.67389e-05
8.5313e-05
8.41602e-05
8.32283e-05
8.24748e-05
8.18656e-05
8.13731e-05
8.09749e-05
8.0653e-05
8.03927e-05
8.01822e-05
8.00121e-05
7.98745e-05
7.97633e-05
7.96733e-05
7.96006e-05
7.95418e-05
7.94943e-05
7.94558e-05
7.94247e-05
7.93996e-05
7.93793e-05
7.93629e-05
7.93496e-05
7.93388e-05
7.93302e-05
7.93231e-05
7.93175e-05
7.93129e-05
7.93092e-05
7.93062e-05
7.93037e-05
7.93018e-05
7.93002e-05
7.92989e-05
7.92979e-05
-0.000107859
-0.00010786
-0.000107862
-0.000107865
-0.000107868
-0.000107872
-0.000107877
-0.000107882
-0.00010789
-0.000107899
-0.00010791
-0.000107924
-0.000107941
-0.000107962
-0.000107988
-0.00010802
-0.00010806
-0.000108109
-0.00010817
-0.000108245
-0.000108339
-0.000108454
-0.000108597
-0.000108773
-0.000108991
-0.000109261
-0.000109595
-0.000110008
-0.000110518
-0.00011115
-0.000111931
-0.000112897
-0.000114092
-0.00011557
-0.000117398
-0.00011966
-0.000122457
-0.000125918
-0.000130199
-0.000135494
-0.000142045
-0.000150149
-0.000160175
-0.000172576
-0.000187918
-0.000206896
-0.000230372
-0.000260163
-0.000555998
-0.00117409
-0.0018885
-0.00270871
-0.00364637
-0.00471377
-0.00592357
-0.00728847
-0.00882078
-0.0105318
-0.0124312
-0.0145262
-0.0168206
-0.0193137
-0.0219997
-0.0248662
-0.0278933
-0.031053
-0.0343087
-0.0376145
-0.0409158
-0.04415
-0.0472484
-0.0501385
-0.0527475
-0.0550064
-0.0568545
-0.0582435
-0.059141
-0.0595323
-0.0594208
-0.0588276
-0.057788
-0.0563486
-0.0545634
-0.0524898
-0.0501856
-0.0477057
-0.0451007
-0.0424157
-0.0396893
-0.0369542
-0.0342374
-0.0315605
-0.0289408
-0.0263923
-0.0239261
-0.0215518
-0.0192776
-0.0171117
-0.0150623
-0.0131375
-0.0113452
-0.00969244
-0.00818389
-0.0068215
-0.00560383
-0.00452649
-0.00358314
-0.00276752
-0.00207301
-0.0014704
-0.000891607
-0.000299675
0.000299675
0.000891607
0.0014704
0.00207301
0.00276752
0.00358314
0.00452649
0.00560383
0.0068215
0.00818389
0.00969244
0.0113452
0.0131375
0.0150623
0.0171117
0.0192776
0.0215518
0.0239261
0.0263923
0.0289408
0.0315605
0.0342374
0.0369542
0.0396893
0.0424157
0.0451007
0.0477057
0.0501856
0.0524898
0.0545634
0.0563486
0.057788
0.0588276
0.0594208
0.0595323
0.059141
0.0582435
0.0568545
0.0550064
0.0527475
0.0501385
0.0472484
0.04415
0.0409158
0.0376145
0.0343087
0.031053
0.0278933
0.0248662
0.0219997
0.0193137
0.0168206
0.0145262
0.0124312
0.0105318
0.00882078
0.00728847
0.00592357
0.00471377
0.00364637
0.00270871
0.0018885
0.00117409
0.000556054
0.00026027
0.000230479
0.000207003
0.000188025
0.000172684
0.000160282
0.000150256
0.000142152
0.000135601
0.000130306
0.000126025
0.000122565
0.000119767
0.000117505
0.000115677
0.000114199
0.000113004
0.000112038
0.000111257
0.000110625
0.000110115
0.000109702
0.000109368
0.000109098
0.00010888
0.000108704
0.000108561
0.000108446
0.000108353
0.000108277
0.000108216
0.000108167
0.000108127
0.000108095
0.000108069
0.000108048
0.000108031
0.000108017
0.000108006
0.000107997
0.000107989
0.000107984
0.000107979
0.000107975
0.000107972
0.000107969
0.000107967
0.000107966
-0.000145588
-0.00014559
-0.000145594
-0.000145597
-0.000145602
-0.000145608
-0.000145616
-0.000145625
-0.000145636
-0.00014565
-0.000145667
-0.000145688
-0.000145715
-0.000145747
-0.000145788
-0.000145837
-0.000145899
-0.000145975
-0.00014607
-0.000146186
-0.000146331
-0.000146509
-0.00014673
-0.000147002
-0.00014734
-0.000147757
-0.000148274
-0.000148912
-0.000149702
-0.000150679
-0.000151887
-0.000153382
-0.00015523
-0.000157517
-0.000160345
-0.000163844
-0.000168171
-0.000173525
-0.000180147
-0.00018834
-0.000198474
-0.000211011
-0.000226521
-0.000245707
-0.000269441
-0.0002988
-0.000335118
-0.000382533
-0.000679452
-0.00128451
-0.00198932
-0.00280127
-0.00373182
-0.00479311
-0.00599765
-0.00735804
-0.00888647
-0.0105942
-0.0124908
-0.0145833
-0.0168756
-0.019367
-0.0220516
-0.0249168
-0.0279429
-0.0311018
-0.0343568
-0.0376621
-0.040963
-0.044197
-0.0472953
-0.0501853
-0.0527943
-0.0550533
-0.0569017
-0.0582911
-0.059189
-0.0595807
-0.0594699
-0.0588774
-0.0578387
-0.0564004
-0.0546164
-0.0525444
-0.0502419
-0.047764
-0.0451613
-0.042479
-0.0397557
-0.0370241
-0.0343113
-0.0316388
-0.0290241
-0.026481
-0.0240206
-0.0216523
-0.0193842
-0.0172243
-0.0151802
-0.01326
-0.0114713
-0.00982093
-0.00831405
-0.00695335
-0.00573885
-0.00466873
-0.00374183
-0.00295782
-0.0022893
-0.00165795
-0.00100905
-0.000338885
0.000338885
0.00100905
0.00165795
0.0022893
0.00295782
0.00374183
0.00466873
0.00573885
0.00695335
0.00831405
0.00982093
0.0114713
0.01326
0.0151802
0.0172243
0.0193842
0.0216523
0.0240206
0.026481
0.0290241
0.0316388
0.0343113
0.0370241
0.0397557
0.042479
0.0451613
0.047764
0.0502419
0.0525444
0.0546164
0.0564004
0.0578387
0.0588774
0.0594699
0.0595807
0.059189
0.0582911
0.0569017
0.0550533
0.0527943
0.0501853
0.0472953
0.044197
0.040963
0.0376621
0.0343568
0.0311018
0.0279429
0.0249168
0.0220516
0.019367
0.0168756
0.0145833
0.0124908
0.0105942
0.00888647
0.00735804
0.00599765
0.00479311
0.00373182
0.00280127
0.00198932
0.00128451
0.000679507
0.000382639
0.000335225
0.000298907
0.000269548
0.000245814
0.000226628
0.000211118
0.000198581
0.000188447
0.000180254
0.000173632
0.000168278
0.000163951
0.000160452
0.000157624
0.000155337
0.000153489
0.000151994
0.000150786
0.000149809
0.000149019
0.000148381
0.000147864
0.000147447
0.000147109
0.000146837
0.000146616
0.000146438
0.000146293
0.000146177
0.000146082
0.000146006
0.000145945
0.000145895
0.000145854
0.000145822
0.000145795
0.000145774
0.000145757
0.000145743
0.000145732
0.000145723
0.000145715
0.000145709
0.000145704
0.000145701
0.000145697
0.000145695
-0.000195243
-0.000195247
-0.000195251
-0.000195257
-0.000195265
-0.000195274
-0.000195285
-0.000195299
-0.000195316
-0.000195337
-0.000195363
-0.000195395
-0.000195435
-0.000195485
-0.000195546
-0.000195621
-0.000195715
-0.000195831
-0.000195974
-0.000196151
-0.000196369
-0.00019664
-0.000196975
-0.000197389
-0.0001979
-0.000198534
-0.000199317
-0.000200285
-0.000201484
-0.000202965
-0.000204798
-0.000207065
-0.000209869
-0.000213338
-0.000217628
-0.000222936
-0.000229501
-0.000237622
-0.000247668
-0.000260096
-0.000275471
-0.00029449
-0.000318018
-0.000347123
-0.000383128
-0.000427667
-0.000482766
-0.000557234
-0.000856053
-0.00144067
-0.00213144
-0.00293132
-0.0038515
-0.00490386
-0.00610073
-0.00745454
-0.00897731
-0.0106802
-0.0125726
-0.0146616
-0.0169509
-0.0194398
-0.0221221
-0.0249855
-0.0280101
-0.0311678
-0.0344218
-0.0377263
-0.0410267
-0.0442602
-0.0473583
-0.0502482
-0.0528573
-0.0551165
-0.0569652
-0.058355
-0.0592535
-0.0596461
-0.0595362
-0.0589449
-0.0579075
-0.0564708
-0.0546887
-0.0526189
-0.0503189
-0.047844
-0.0452449
-0.0425665
-0.0398478
-0.0371215
-0.0344145
-0.0317487
-0.0291413
-0.0266062
-0.0241544
-0.0217951
-0.0195361
-0.0173851
-0.0153494
-0.0134366
-0.0116541
-0.010009
-0.0085072
-0.00715337
-0.00595119
-0.00490715
-0.00403091
-0.00329597
-0.0026086
-0.00189886
-0.00115465
-0.000387476
0.000387476
0.00115465
0.00189886
0.0026086
0.00329597
0.00403091
0.00490715
0.00595119
0.00715337
0.0085072
0.010009
0.0116541
0.0134366
0.0153494
0.0173851
0.0195361
0.0217951
0.0241544
0.0266062
0.0291413
0.0317487
0.0344145
0.0371215
0.0398478
0.0425665
0.0452449
0.047844
0.0503189
0.0526189
0.0546887
0.0564708
0.0579075
0.0589449
0.0595362
0.0596461
0.0592535
0.058355
0.0569652
0.0551165
0.0528573
0.0502482
0.0473583
0.0442602
0.0410267
0.0377263
0.0344218
0.0311678
0.0280101
0.0249855
0.0221221
0.0194398
0.0169509
0.0146616
0.0125726
0.0106802
0.00897731
0.00745454
0.00610073
0.00490386
0.0038515
0.00293132
0.00213144
0.00144067
0.000856106
0.000557337
0.000482873
0.000427775
0.000383235
0.00034723
0.000318125
0.000294597
0.000275578
0.000260203
0.000247775
0.000237729
0.000229608
0.000223043
0.000217735
0.000213445
0.000209976
0.000207172
0.000204905
0.000203072
0.000201591
0.000200393
0.000199424
0.000198641
0.000198008
0.000197496
0.000197082
0.000196747
0.000196476
0.000196258
0.000196081
0.000195938
0.000195822
0.000195728
0.000195653
0.000195592
0.000195542
0.000195502
0.00019547
0.000195444
0.000195423
0.000195406
0.000195392
0.000195381
0.000195372
0.000195364
0.000195359
0.000195354
0.00019535
-0.000260593
-0.000260599
-0.000260606
-0.000260615
-0.000260626
-0.000260639
-0.000260656
-0.000260676
-0.000260702
-0.000260733
-0.000260772
-0.000260821
-0.00026088
-0.000260954
-0.000261045
-0.000261158
-0.000261298
-0.000261471
-0.000261684
-0.000261948
-0.000262275
-0.000262679
-0.000263179
-0.000263797
-0.000264561
-0.000265507
-0.000266676
-0.000268123
-0.000269912
-0.000272125
-0.000274862
-0.000278247
-0.000282434
-0.000287614
-0.000294021
-0.000301946
-0.00031175
-0.000323878
-0.000338881
-0.000357441
-0.0003804
-0.000408803
-0.000443939
-0.000487404
-0.000541174
-0.000607691
-0.000689986
-0.000805235
-0.00110744
-0.00166048
-0.0023309
-0.0031133
-0.00401846
-0.00505791
-0.00624369
-0.00758797
-0.00910257
-0.0107984
-0.0126849
-0.0147687
-0.0170537
-0.0195388
-0.022218
-0.0250788
-0.0281011
-0.031257
-0.0345096
-0.037813
-0.0411124
-0.0443454
-0.047443