/*--------------------------------*- C++ -*----------------------------------*\
| =========                 |                                                 |
| \\      /  F ield         | OpenFOAM: The Open Source CFD Toolbox           |
|  \\    /   O peration     | Version:  2112                                  |
|   \\  /    A nd           | Website:  www.openfoam.com                      |
|    \\/     M anipulation  |                                                 |
\*---------------------------------------------------------------------------*/
FoamFile
{
    version     2.0;
    format      ascii;
    arch        "LSB;label=32;scalar=64";
    class       volScalarField;
    location    "1402";
    object      nut;
}
// * * * * * * * * * * * * * * * * * * * * * * * * * * * * * * * * * * * * * //

dimensions      [0 2 -1 0 0 0 0];

internalField   nonuniform List<scalar> 
14336
(
0.0031341
0.00314681
0.00315754
0.0031666
0.00317436
0.0031812
0.00318762
0.00320796
0.00322128
0.0032292
0.00323814
0.0032457
0.00324734
0.00323524
0.00319909
0.00312798
0.00301425
0.00285417
0.00264747
0.00239742
0.00211048
0.00179763
0.001477
0.00117241
0.000907061
0.000696939
0.000549598
0.00046327
0.000428545
0.000432504
0.000462314
0.00050796
0.000564588
0.000634136
0.000723554
0.000834936
0.000950258
0.00103987
0.00111464
0.00123628
0.00140025
0.00140073
0.00126465
0.00103921
0.000742181
0.000419056
0.00013231
5.61751e-06
4.78815e-11
5.46661e-11
5.66836e-11
5.81615e-11
5.97114e-11
6.1111e-11
6.24684e-11
6.37762e-11
6.49265e-11
6.60435e-11
6.71442e-11
6.82245e-11
6.9279e-11
7.03014e-11
7.1297e-11
7.22751e-11
7.32692e-11
7.43302e-11
7.54426e-11
7.6585e-11
7.77687e-11
7.89919e-11
8.02478e-11
8.1551e-11
8.28568e-11
8.40745e-11
8.51438e-11
8.59172e-11
8.62957e-11
8.61249e-11
8.52983e-11
8.36717e-11
8.11044e-11
7.75393e-11
7.29931e-11
6.74087e-11
6.08175e-11
5.33781e-11
4.50956e-11
3.65175e-11
2.80075e-11
1.94651e-11
1.2993e-11
8.49309e-12
3.2664e-12
2.25364e-14
4.89453e-12
3.13176e-11
1.06209e-10
2.76965e-10
6.19534e-10
1.24009e-09
2.26795e-09
3.87794e-09
6.51778e-09
1.08601e-08
1.6775e-08
2.47608e-08
3.48618e-08
4.7183e-08
6.33186e-08
8.61668e-08
1.18763e-07
1.75794e-07
1.70728e-07
1.30763e-07
9.94004e-08
7.87297e-08
6.54858e-08
5.55971e-08
4.71782e-08
3.98269e-08
3.33572e-08
2.76138e-08
2.25339e-08
1.75401e-08
1.34494e-08
1.02274e-08
7.71366e-09
5.81754e-09
4.44225e-09
3.45395e-09
2.69832e-09
2.12798e-09
1.69979e-09
1.37501e-09
1.12454e-09
9.31659e-10
7.78793e-10
6.54766e-10
5.54988e-10
4.74468e-10
4.08087e-10
3.5342e-10
3.07229e-10
2.68072e-10
2.34516e-10
2.05573e-10
1.80297e-10
1.58519e-10
1.39587e-10
1.23041e-10
1.0855e-10
9.59338e-11
8.49099e-11
7.52627e-11
6.67599e-11
5.91823e-11
5.23628e-11
4.61814e-11
4.05462e-11
3.53958e-11
3.06567e-11
2.62985e-11
2.23173e-11
1.87198e-11
1.55148e-11
1.2705e-11
1.02732e-11
8.18837e-12
6.42262e-12
4.962e-12
3.79773e-12
2.90057e-12
2.20954e-12
1.68068e-12
1.06645e-12
1.80368e-13
4.19959e-06
0.000125669
0.000413703
0.000738448
0.00103659
0.0012628
0.00139945
0.00139927
0.0012352
0.00111367
0.00103931
0.000950146
0.00083505
0.000723689
0.000634229
0.000564646
0.000507997
0.000462338
0.000432519
0.000428552
0.00046327
0.000549592
0.00069693
0.000907051
0.0011724
0.00147699
0.00179762
0.00211047
0.00239741
0.00264747
0.00285417
0.00301425
0.00312798
0.00319909
0.00323524
0.00324735
0.00324571
0.00323814
0.0032292
0.00322128
0.00320792
0.00318749
0.00318106
0.00317421
0.00316644
0.00315736
0.00314662
0.00313388
0.00313439
0.00314707
0.00315777
0.00316681
0.00317455
0.00318138
0.00318779
0.00320802
0.00322128
0.0032292
0.00323814
0.0032457
0.00324734
0.00323524
0.00319909
0.00312798
0.00301425
0.00285417
0.00264747
0.00239742
0.00211048
0.00179763
0.001477
0.00117241
0.000907065
0.000696942
0.000549598
0.000463267
0.000428537
0.00043249
0.000462291
0.000507924
0.000564533
0.000634048
0.000723428
0.000834849
0.000950469
0.0010407
0.00111612
0.00123797
0.00140164
0.00140226
0.00126668
0.00104195
0.000746054
0.000424618
0.000139227
9.54177e-06
5.16555e-10
3.45033e-10
3.43623e-10
3.42458e-10
3.4303e-10
3.44492e-10
3.46814e-10
3.49458e-10
3.50863e-10
3.5204e-10
3.52885e-10
3.53114e-10
3.5253e-10
3.50703e-10
3.47747e-10
3.44037e-10
3.41909e-10
3.44327e-10
3.49213e-10
3.54578e-10
3.60326e-10
3.66411e-10
3.72737e-10
3.79346e-10
3.8594e-10
3.91927e-10
3.96909e-10
3.9995e-10
4.00414e-10
3.97321e-10
3.90041e-10
3.78855e-10
3.65767e-10
3.48326e-10
3.23599e-10
2.90394e-10
2.49723e-10
2.03721e-10
1.53852e-10
1.05555e-10
6.35828e-11
2.97949e-11
1.23223e-11
7.93688e-12
3.04858e-12
2.36085e-14
4.58873e-12
2.93125e-11
9.94891e-11
2.60233e-10
5.87218e-10
1.19138e-09
2.29392e-09
5.28689e-09
1.9056e-08
6.59837e-08
1.45916e-07
2.83014e-07
4.7364e-07
7.14769e-07
1.07963e-06
1.68197e-06
2.71522e-06
4.37504e-06
4.6743e-06
3.94341e-06
2.80924e-06
2.06019e-06
1.67541e-06
1.41574e-06
1.19859e-06
1.01803e-06
8.65651e-07
7.3113e-07
6.10403e-07
4.73326e-07
3.59918e-07
2.6804e-07
1.94378e-07
1.38618e-07
9.90023e-08
7.17996e-08
5.19887e-08
3.7919e-08
2.79846e-08
2.09064e-08
1.57789e-08
1.20693e-08
9.30171e-09
7.19665e-09
5.61944e-09
4.43868e-09
3.53924e-09
2.85323e-09
2.31382e-09
1.89108e-09
1.56539e-09
1.31571e-09
1.11156e-09
9.43759e-10
8.04075e-10
6.86679e-10
5.87136e-10
5.03609e-10
4.33243e-10
3.73862e-10
3.23373e-10
2.79959e-10
2.4227e-10
2.09318e-10
1.80419e-10
1.55832e-10
1.35277e-10
1.16965e-10
1.00036e-10
8.45489e-11
7.06428e-11
5.84859e-11
4.80428e-11
3.9202e-11
3.182e-11
2.57845e-11
2.10001e-11
1.73243e-11
1.45551e-11
1.23438e-11
9.04195e-12
9.1513e-11
3.61146e-06
0.000115581
0.000405781
0.000733073
0.00103293
0.00126047
0.00139812
0.00139871
0.00123499
0.00111341
0.00103912
0.000950178
0.000835232
0.000723866
0.000634348
0.000564719
0.000508044
0.000462367
0.000432534
0.000428555
0.000463263
0.000549578
0.000696911
0.00090703
0.00117238
0.00147697
0.0017976
0.00211046
0.00239741
0.00264746
0.00285416
0.00301425
0.00312798
0.00319909
0.00323524
0.00324735
0.00324571
0.00323814
0.00322921
0.00322128
0.0032079
0.00318742
0.00318098
0.00317413
0.00316635
0.00315726
0.0031465
0.00313375
0.00313491
0.00314753
0.00315819
0.0031672
0.00317491
0.00318171
0.0031881
0.00320812
0.00322128
0.0032292
0.00323813
0.0032457
0.00324734
0.00323524
0.00319909
0.00312798
0.00301425
0.00285417
0.00264747
0.00239742
0.00211049
0.00179763
0.00147701
0.00117242
0.000907071
0.000696946
0.000549599
0.000463262
0.000428524
0.000432466
0.000462253
0.000507868
0.000564446
0.000633909
0.000723229
0.000834717
0.000950869
0.0010423
0.0011191
0.00124143
0.00140423
0.00140485
0.00126994
0.00104622
0.00075217
0.000433794
0.000153273
2.03797e-05
3.09537e-08
1.87362e-08
1.75455e-08
1.6586e-08
1.58707e-08
1.5327e-08
1.49181e-08
1.45946e-08
1.42712e-08
1.39864e-08
1.37304e-08
1.34913e-08
1.32639e-08
1.30453e-08
1.28478e-08
1.26793e-08
1.25819e-08
1.26145e-08
1.27246e-08
1.28632e-08
1.30278e-08
1.32159e-08
1.34231e-08
1.36509e-08
1.38879e-08
1.41124e-08
1.43098e-08
1.44452e-08
1.44951e-08
1.44221e-08
1.42009e-08
1.38234e-08
1.33197e-08
1.26305e-08
1.16973e-08
1.04828e-08
8.99469e-09
7.28884e-09
5.39853e-09
3.53698e-09
1.91138e-09
6.06246e-10
2.13602e-11
8.01066e-12
3.01323e-12
1.20005e-13
4.67478e-12
2.96085e-11
1.04655e-10
3.00016e-10
8.80097e-10
2.19624e-09
9.5575e-09
9.29901e-08
7.91874e-07
2.80167e-06
5.41661e-06
8.95093e-06
1.23474e-05
1.47504e-05
1.69988e-05
1.91685e-05
2.11651e-05
2.34925e-05
2.47275e-05
2.39611e-05
2.43288e-05
2.52603e-05
2.5673e-05
2.49742e-05
2.35164e-05
2.18372e-05
2.01321e-05
1.84262e-05
1.67592e-05
1.40167e-05
1.13809e-05
8.97029e-06
6.85985e-06
5.14146e-06
3.83344e-06
2.87624e-06
2.13716e-06
1.5858e-06
1.1802e-06
8.82796e-07
6.63381e-07
5.0296e-07
3.83079e-07
2.92369e-07
2.25023e-07
1.75232e-07
1.3802e-07
1.103e-07
8.90906e-08
7.27523e-08
6.00752e-08
5.01608e-08
4.20687e-08
3.54806e-08
3.00475e-08
2.55206e-08
2.17104e-08
1.85382e-08
1.58865e-08
1.36663e-08
1.17931e-08
1.01948e-08
8.81793e-09
7.62305e-09
6.58163e-09
5.68988e-09
4.93056e-09
4.26051e-09
3.65853e-09
3.12075e-09
2.64399e-09
2.22862e-09
1.87157e-09
1.56843e-09
1.31442e-09
1.10619e-09
9.41536e-10
8.1706e-10
7.27697e-10
6.58146e-10
5.19882e-10
5.39139e-09
3.42168e-06
0.000104872
0.00039489
0.000725651
0.00102795
0.00125737
0.00139642
0.00139811
0.00123501
0.00111332
0.00103899
0.000950246
0.000835461
0.000724087
0.000634496
0.00056481
0.000508101
0.000462402
0.000432552
0.000428558
0.000463254
0.00054956
0.000696887
0.000907004
0.00117236
0.00147695
0.00179759
0.00211045
0.0023974
0.00264746
0.00285416
0.00301424
0.00312798
0.00319909
0.00323524
0.00324735
0.00324571
0.00323815
0.00322921
0.00322128
0.00320787
0.00318734
0.0031809
0.00317404
0.00316626
0.00315716
0.00314639
0.00313363
0.00313563
0.00314818
0.00315877
0.00316773
0.0031754
0.00318216
0.00318853
0.00320825
0.00322129
0.0032292
0.00323812
0.00324569
0.00324733
0.00323523
0.00319908
0.00312798
0.00301426
0.00285417
0.00264747
0.00239743
0.00211049
0.00179764
0.00147702
0.00117243
0.000907083
0.000696955
0.000549603
0.000463257
0.000428507
0.000432433
0.000462201
0.00050779
0.000564326
0.000633716
0.000722949
0.000834521
0.000951406
0.00104454
0.00112332
0.00124637
0.0014079
0.00140854
0.00127466
0.00105249
0.000761295
0.000447818
0.000175574
4.00035e-05
7.64086e-07
4.64219e-07
4.15e-07
3.75809e-07
3.45413e-07
3.21411e-07
3.02456e-07
2.87169e-07
2.73627e-07
2.62334e-07
2.52882e-07
2.44874e-07
2.38034e-07
2.32156e-07
2.27239e-07
2.23257e-07
2.20591e-07
2.19816e-07
2.20301e-07
2.2147e-07
2.23278e-07
2.25663e-07
2.28545e-07
2.31942e-07
2.35672e-07
2.39393e-07
2.42881e-07
2.45591e-07
2.47158e-07
2.46988e-07
2.44651e-07
2.3983e-07
2.32555e-07
2.22014e-07
2.07485e-07
1.88298e-07
1.64294e-07
1.36021e-07
1.03449e-07
6.99147e-08
3.91008e-08
1.2697e-08
2.46707e-10
1.90354e-11
6.13603e-12
2.63262e-12
1.30955e-11
7.47195e-11
3.15233e-10
1.12938e-09
4.94749e-09
1.52194e-08
7.39867e-08
6.0684e-07
3.53384e-06
9.44222e-06
1.2505e-05
1.52607e-05
1.78508e-05
1.99665e-05
2.07793e-05
2.06626e-05
2.02614e-05
1.97323e-05
2.16714e-05
2.39014e-05
2.69424e-05
3.09958e-05
3.43675e-05
3.86316e-05
4.26756e-05
4.55713e-05
4.6913e-05
4.68837e-05
4.5716e-05
4.30426e-05
3.95449e-05
3.52816e-05
3.0582e-05
2.60941e-05
2.21863e-05
1.89306e-05
1.56958e-05
1.2876e-05
1.0498e-05
8.52415e-06
6.89355e-06
5.57493e-06
4.49394e-06
3.60676e-06
2.90117e-06
2.34903e-06
1.91678e-06
1.58117e-06
1.31368e-06
1.09918e-06
9.25842e-07
7.84869e-07
6.67104e-07
5.69604e-07
4.87985e-07
4.19028e-07
3.60213e-07
3.1068e-07
2.68853e-07
2.33516e-07
2.03468e-07
1.77646e-07
1.55252e-07
1.35693e-07
1.18528e-07
1.03617e-07
9.0642e-08
7.90889e-08
6.87021e-08
5.94192e-08
5.11932e-08
4.40209e-08
3.78487e-08
3.25976e-08
2.81878e-08
2.45776e-08
2.17608e-08
1.97187e-08
1.84064e-08
1.75135e-08
1.46432e-08
1.52355e-07
3.29762e-06
9.38043e-05
0.000379877
0.000715239
0.00102104
0.00125316
0.00139418
0.00139745
0.00123533
0.00111347
0.00103895
0.000950365
0.000835755
0.000724367
0.000634683
0.000564924
0.000508172
0.000462446
0.000432574
0.000428562
0.000463243
0.000549538
0.000696858
0.000906972
0.00117232
0.00147692
0.00179757
0.00211043
0.00239738
0.00264745
0.00285416
0.00301424
0.00312797
0.00319909
0.00323524
0.00324735
0.00324571
0.00323815
0.00322921
0.00322128
0.00320785
0.00318727
0.00318083
0.00317396
0.00316617
0.00315707
0.00314629
0.00313351
0.00313659
0.00314903
0.00315954
0.00316843
0.00317605
0.00318277
0.0031891
0.00320844
0.00322129
0.00322919
0.00323811
0.00324568
0.00324733
0.00323523
0.00319908
0.00312798
0.00301426
0.00285417
0.00264748
0.00239744
0.0021105
0.00179766
0.00147703
0.00117245
0.0009071
0.00069697
0.000549609
0.000463252
0.000428486
0.000432391
0.000462132
0.000507684
0.000564163
0.000633453
0.000722564
0.000834238
0.000952109
0.00104759
0.00112913
0.0012532
0.00141299
0.00141371
0.00128133
0.00106144
0.00077445
0.000468256
0.000207299
6.89337e-05
6.73988e-06
4.53565e-06
4.02248e-06
3.60225e-06
3.26718e-06
2.99738e-06
2.78004e-06
2.60275e-06
2.44835e-06
2.32037e-06
2.21436e-06
2.12614e-06
2.05251e-06
1.99099e-06
1.94036e-06
1.89958e-06
1.86978e-06
1.85315e-06
1.84617e-06
1.84566e-06
1.85119e-06
1.86215e-06
1.87781e-06
1.89819e-06
1.92202e-06
1.94697e-06
1.97161e-06
1.99241e-06
2.00708e-06
2.01172e-06
2.00346e-06
1.97936e-06
1.93747e-06
1.87232e-06
1.77899e-06
1.65102e-06
1.48347e-06
1.27494e-06
1.01631e-06
7.26883e-07
4.34446e-07
1.52215e-07
3.07481e-09
1.73648e-10
5.52581e-11
4.26176e-11
1.50266e-10
7.13664e-10
2.45705e-09
5.72955e-09
1.46529e-08
3.5336e-08
1.19172e-07
5.17834e-07
2.09446e-06
5.11452e-06
6.8723e-06
7.96502e-06
8.53443e-06
8.73025e-06
8.66049e-06
8.43028e-06
8.12511e-06
7.88815e-06
1.22588e-05
1.5957e-05
1.9169e-05
2.269e-05
2.7124e-05
3.34417e-05
4.20928e-05
4.96052e-05
5.8556e-05
6.7034e-05
7.34359e-05
7.71362e-05
7.80004e-05
7.58535e-05
6.99497e-05
6.25982e-05
5.51837e-05
4.82391e-05
4.19357e-05
3.60658e-05
3.09138e-05
2.65069e-05
2.27366e-05
1.96332e-05
1.69311e-05
1.45656e-05
1.25581e-05
1.0872e-05
9.44888e-06
8.26217e-06
7.24888e-06
6.38134e-06
5.63235e-06
4.98084e-06
4.40596e-06
3.9069e-06
3.46948e-06
3.08258e-06
2.73673e-06
2.43348e-06
2.16766e-06
1.93527e-06
1.73133e-06
1.55091e-06
1.39013e-06
1.24605e-06
1.1164e-06
1.00056e-06
8.96369e-07
8.0126e-07
7.14075e-07
6.34683e-07
5.63113e-07
4.99715e-07
4.44435e-07
3.96938e-07
3.56878e-07
3.24367e-07
3.00055e-07
2.84618e-07
2.78613e-07
2.78538e-07
2.46185e-07
2.30273e-06
3.23447e-06
8.28862e-05
0.000359584
0.000700576
0.00101139
0.00124738
0.0013912
0.0013967
0.00123606
0.00111393
0.00103903
0.000950552
0.000836136
0.000724725
0.000634921
0.000565068
0.000508261
0.0004625
0.000432601
0.000428566
0.000463228
0.000549509
0.00069682
0.000906932
0.00117229
0.00147689
0.00179754
0.00211041
0.00239737
0.00264744
0.00285415
0.00301424
0.00312797
0.00319909
0.00323524
0.00324735
0.00324571
0.00323815
0.00322921
0.00322128
0.00320783
0.0031872
0.00318075
0.00317388
0.00316609
0.00315697
0.00314618
0.0031334
0.00313784
0.00315015
0.00316055
0.00316935
0.0031769
0.00318356
0.00318984
0.00320867
0.00322129
0.00322919
0.0032381
0.00324567
0.00324732
0.00323522
0.00319907
0.00312798
0.00301426
0.00285417
0.00264748
0.00239745
0.00211052
0.00179768
0.00147706
0.00117248
0.000907127
0.000696991
0.000549621
0.000463247
0.00042846
0.000432337
0.000462042
0.000507546
0.000563946
0.000633101
0.000722044
0.000833837
0.000953
0.00105162
0.00113692
0.00126244
0.00141988
0.00142079
0.00129056
0.00107393
0.000792927
0.000496907
0.000249537
0.000107111
2.26658e-05
1.64092e-05
1.4929e-05
1.36153e-05
1.25429e-05
1.16624e-05
1.09381e-05
1.03328e-05
9.76353e-06
9.28434e-06
8.88249e-06
8.54548e-06
8.26293e-06
8.0264e-06
7.83055e-06
7.67098e-06
7.54803e-06
7.46441e-06
7.41194e-06
7.3829e-06
7.37573e-06
7.3882e-06
7.41749e-06
7.46308e-06
7.52115e-06
7.58494e-06
7.65055e-06
7.7083e-06
7.75225e-06
7.77182e-06
7.75929e-06
7.70542e-06
7.60059e-06
7.42864e-06
7.1747e-06
6.81526e-06
6.32392e-06
5.67572e-06
4.79543e-06
3.70333e-06
2.44644e-06
9.82481e-07
2.3098e-08
1.44117e-09
5.46888e-10
5.10091e-10
1.57804e-09
5.21721e-09
9.49736e-09
1.49998e-08
2.65091e-08
4.36345e-08
8.63513e-08
2.31534e-07
6.85182e-07
1.27135e-06
1.69338e-06
1.93999e-06
2.05305e-06
2.07462e-06
2.03579e-06
1.51847e-06
1.17663e-06
1.05856e-06
6.04945e-06
1.06038e-05
1.39513e-05
1.69273e-05
2.00553e-05
2.40399e-05
2.9892e-05
3.86893e-05
5.24785e-05
6.50483e-05
7.99229e-05
9.51014e-05
0.000107486
0.000115604
0.000118084
0.000112475
0.000103658
9.36721e-05
8.33776e-05
7.34607e-05
6.43889e-05
5.6348e-05
4.93935e-05
4.35484e-05
3.84467e-05
3.39153e-05
3.00569e-05
2.67941e-05
2.39347e-05
2.15385e-05
1.94809e-05
1.77163e-05
1.61793e-05
1.4789e-05
1.35451e-05
1.24721e-05
1.15234e-05
1.0653e-05
9.81632e-06
9.05827e-06
8.37163e-06
7.75151e-06
7.18966e-06
6.67675e-06
6.20551e-06
5.77043e-06
5.36715e-06
4.99509e-06
4.64648e-06
4.3172e-06
4.00652e-06
3.71561e-06
3.4467e-06
3.20365e-06
2.98935e-06
2.80573e-06
2.65502e-06
2.54247e-06
2.47762e-06
2.47208e-06
2.5397e-06
2.65929e-06
2.49322e-06
1.5601e-05
3.34263e-06
7.27181e-05
0.000333216
0.000680012
0.000997837
0.00123937
0.00138717
0.00139583
0.00123732
0.00111481
0.00103928
0.000950835
0.000836636
0.00072519
0.00063523
0.000565255
0.000508376
0.00046257
0.000432636
0.000428572
0.000463209
0.000549471
0.000696772
0.00090688
0.00117224
0.00147684
0.0017975
0.00211039
0.00239735
0.00264743
0.00285414
0.00301423
0.00312797
0.00319909
0.00323524
0.00324735
0.00324571
0.00323815
0.00322921
0.00322128
0.00320781
0.00318714
0.00318068
0.00317381
0.00316601
0.00315689
0.00314609
0.00313329
0.00313944
0.00315158
0.00316184
0.00317053
0.00317798
0.00318458
0.0031908
0.00320898
0.00322129
0.00322918
0.00323808
0.00324565
0.00324731
0.00323522
0.00319907
0.00312798
0.00301427
0.00285417
0.00264749
0.00239747
0.00211054
0.0017977
0.00147709
0.00117252
0.000907164
0.000697024
0.00054964
0.000463246
0.00042843
0.00043227
0.000461929
0.000507368
0.000563666
0.000632642
0.000721355
0.000833273
0.000954084
0.00105681
0.00114713
0.00127462
0.00142903
0.0014303
0.00130309
0.00109104
0.000818269
0.000535588
0.000302922
0.000154693
5.00681e-05
3.78886e-05
3.47319e-05
3.17374e-05
2.92646e-05
2.72023e-05
2.54777e-05
2.4026e-05
2.27585e-05
2.16888e-05
2.07918e-05
2.00392e-05
1.94072e-05
1.88761e-05
1.84323e-05
1.80655e-05
1.77728e-05
1.75549e-05
1.73994e-05
1.72917e-05
1.7232e-05
1.7215e-05
1.72328e-05
1.72826e-05
1.73568e-05
1.74419e-05
1.7531e-05
1.76061e-05
1.7658e-05
1.76638e-05
1.76109e-05
1.74824e-05
1.72565e-05
1.68998e-05
1.6385e-05
1.56688e-05
1.46993e-05
1.34121e-05
1.15061e-05
9.12012e-06
6.33079e-06
2.81824e-06
8.28123e-08
7.17479e-09
3.95525e-09
4.82154e-09
1.18165e-08
2.24264e-08
2.99412e-08
4.05994e-08
5.96911e-08
9.07251e-08
1.28796e-07
1.48739e-07
1.48993e-07
1.464e-07
1.36241e-07
1.22327e-07
1.08065e-07
9.51183e-08
8.46465e-08
7.77424e-08
7.777e-08
8.6568e-08
7.52896e-07
5.97867e-06
9.57234e-06
1.26666e-05
1.55338e-05
1.85703e-05
2.23551e-05
2.76836e-05
3.62062e-05
4.97576e-05
7.19837e-05
8.99856e-05
0.000112177
0.000134412
0.000152375
0.00016306
0.000163802
0.000155035
0.000142768
0.000129148
0.000115532
0.000102682
9.10571e-05
8.09288e-05
7.2104e-05
6.435e-05
5.77094e-05
5.20665e-05
4.72467e-05
4.31263e-05
3.95293e-05
3.64267e-05
3.37066e-05
3.12985e-05
2.90489e-05
2.70583e-05
2.52812e-05
2.36748e-05
2.2201e-05
2.08708e-05
1.9672e-05
1.85965e-05
1.76296e-05
1.67552e-05
1.59615e-05
1.52403e-05
1.45846e-05
1.39933e-05
1.34137e-05
1.28576e-05
1.23412e-05
1.18685e-05
1.14469e-05
1.1088e-05
1.08036e-05
1.06062e-05
1.05113e-05
1.05451e-05
1.07474e-05
1.1168e-05
1.18751e-05
1.2794e-05
1.25406e-05
4.9883e-05
3.91455e-06
6.38536e-05
0.000300964
0.000651533
0.000978833
0.00122822
0.00138165
0.00139475
0.0012393
0.00111627
0.00103976
0.000951248
0.000837294
0.000725798
0.000635633
0.000565497
0.000508525
0.00046266
0.00043268
0.000428578
0.000463184
0.000549423
0.00069671
0.000906814
0.00117217
0.00147679
0.00179746
0.00211035
0.00239733
0.00264741
0.00285413
0.00301423
0.00312797
0.00319909
0.00323524
0.00324735
0.00324571
0.00323815
0.00322921
0.00322128
0.00320779
0.00318707
0.00318062
0.00317374
0.00316593
0.0031568
0.00314599
0.00313318
0.00314145
0.00315336
0.00316345
0.003172
0.00317934
0.00318585
0.00319199
0.00320936
0.0032213
0.00322918
0.00323806
0.00324563
0.00324729
0.00323521
0.00319906
0.00312799
0.00301428
0.00285417
0.0026475
0.0023975
0.00211057
0.00179774
0.00147714
0.00117257
0.000907217
0.000697069
0.00054967
0.000463249
0.000428397
0.00043219
0.000461788
0.000507145
0.00056331
0.000632052
0.000720454
0.000832487
0.000955335
0.0010633
0.00116013
0.00129025
0.00144085
0.00144279
0.00131974
0.00111398
0.00085217
0.000585828
0.000367539
0.000212465
9.05407e-05
7.11562e-05
6.58004e-05
6.05194e-05
5.60907e-05
5.23346e-05
4.91445e-05
4.64268e-05
4.40056e-05
4.1919e-05
4.01585e-05
3.86752e-05
3.74266e-05
3.63777e-05
3.55022e-05
3.47793e-05
3.4198e-05
3.37515e-05
3.34182e-05
3.31778e-05
3.30229e-05
3.29418e-05
3.29215e-05
3.29574e-05
3.30364e-05
3.31341e-05
3.32373e-05
3.33055e-05
3.33238e-05
3.3262e-05
3.30896e-05
3.27746e-05
3.22713e-05
3.15165e-05
3.04577e-05
2.90114e-05
2.70636e-05
2.44844e-05
2.09903e-05
1.67233e-05
1.20366e-05
5.50703e-06
1.78505e-07
2.08403e-08
2.12116e-08
3.63188e-08
6.72368e-08
9.74525e-08
1.24928e-07
1.57412e-07
1.58258e-07
1.34256e-07
1.12094e-07
9.57026e-08
8.35075e-08
7.42705e-08
6.71848e-08
6.19585e-08
5.9303e-08
6.04238e-08
6.62278e-08
7.79227e-08
9.61611e-08
1.13722e-07
1.875e-07
1.86065e-06
5.37723e-06
8.29859e-06
1.14722e-05
1.44299e-05
1.76251e-05
2.15006e-05
2.69416e-05
3.52698e-05
4.93735e-05
7.21615e-05
0.000102766
0.000128018
0.000158876
0.000187792
0.000210215
0.000222557
0.000216224
0.000203104
0.00018681
0.000169419
0.000152459
0.000136936
0.000123013
0.000110551
9.97323e-05
9.04446e-05
8.24447e-05
7.56255e-05
6.9707e-05
6.45931e-05
6.01174e-05
5.61734e-05
5.26387e-05
4.95036e-05
4.6688e-05
4.41451e-05
4.18337e-05
3.97437e-05
3.78587e-05
3.61686e-05
3.46512e-05
3.32825e-05
3.2046e-05
3.09303e-05
2.99263e-05
2.90324e-05
2.82355e-05
2.75307e-05
2.69232e-05
2.64255e-05
2.60567e-05
2.58444e-05
2.58197e-05
2.60186e-05
2.64888e-05
2.7301e-05
2.85523e-05
3.03564e-05
3.28785e-05
3.59301e-05
3.57552e-05
0.000106989
5.66206e-06
5.68997e-05
0.000264666
0.000613057
0.000952292
0.00121266
0.00137403
0.00139335
0.00124222
0.00111851
0.00104057
0.000951842
0.000838166
0.000726599
0.000636163
0.000565815
0.00050872
0.000462777
0.000432738
0.000428586
0.000463151
0.00054936
0.000696629
0.000906728
0.00117209
0.00147672
0.0017974
0.00211031
0.0023973
0.00264739
0.00285412
0.00301422
0.00312796
0.00319909
0.00323524
0.00324735
0.00324571
0.00323815
0.00322921
0.00322128
0.00320777
0.00318701
0.00318055
0.00317367
0.00316586
0.00315672
0.0031459
0.00313308
0.00314389
0.00315555
0.00316542
0.0031738
0.003181
0.0031874
0.00319345
0.00320983
0.0032213
0.00322917
0.00323804
0.0032456
0.00324728
0.0032352
0.00319904
0.00312799
0.00301429
0.00285418
0.00264752
0.00239753
0.00211061
0.00179779
0.0014772
0.00117264
0.00090729
0.000697134
0.000549714
0.00046326
0.000428362
0.000432096
0.000461617
0.000506869
0.000562864
0.000631306
0.000719295
0.0008314
0.000956668
0.0010711
0.00117613
0.00130968
0.00145571
0.00145879
0.00134139
0.00114408
0.000896269
0.000648588
0.000443287
0.000282285
0.000145629
0.000120546
0.000111917
0.000102978
9.54604e-05
8.90375e-05
8.35471e-05
7.88522e-05
7.48156e-05
7.13781e-05
6.84571e-05
6.59811e-05
6.38864e-05
6.21197e-05
6.06391e-05
5.94103e-05
5.84119e-05
5.76279e-05
5.70262e-05
5.65784e-05
5.62695e-05
5.60791e-05
5.59866e-05
5.59854e-05
5.60556e-05
5.61584e-05
5.62737e-05
5.62845e-05
5.61965e-05
5.59742e-05
5.55593e-05
5.48925e-05
5.38409e-05
5.23217e-05
5.02518e-05
4.7478e-05
4.37858e-05
3.89512e-05
3.26734e-05
2.51412e-05
1.69902e-05
8.26317e-06
2.86541e-07
6.01122e-08
9.80934e-08
2.01262e-07
2.89559e-07
2.75189e-07
2.34022e-07
1.89303e-07
1.5239e-07
1.23842e-07
1.02019e-07
8.56714e-08
7.3688e-08
6.63216e-08
6.44535e-08
6.80205e-08
7.53783e-08
8.30296e-08
9.35318e-08
1.10696e-07
1.27892e-07
1.38862e-07
1.54899e-07
4.83954e-07
2.33109e-06
4.53242e-06
6.47912e-06
9.26192e-06
1.3031e-05
1.70547e-05
2.12709e-05
2.70789e-05
3.60947e-05
5.05144e-05
7.46756e-05
0.000113953
0.000145824
0.00018269
0.000222695
0.000258849
0.000283748
0.000287629
0.000275755
0.000257642
0.00023688
0.000216025
0.00019621
0.000177771
0.000161337
0.000146961
0.000134414
0.000123641
0.000114257
0.00010615
9.90667e-05
9.28573e-05
8.73179e-05
8.2431e-05
7.80634e-05
7.41484e-05
7.06243e-05
6.74573e-05
6.46246e-05
6.21134e-05
5.98888e-05
5.79149e-05
5.61708e-05
5.46434e-05
5.33234e-05
5.22113e-05
5.12921e-05
5.05677e-05
5.00565e-05
4.97885e-05
4.98061e-05
5.01656e-05
5.09326e-05
5.21848e-05
5.40263e-05
5.66062e-05
6.01184e-05
6.47754e-05
7.08833e-05
7.80674e-05
7.82393e-05
0.000169894
1.04151e-05
5.2895e-05
0.000228136
0.000563362
0.000915627
0.00119092
0.00136344
0.00139143
0.00124636
0.00112182
0.00104185
0.000952689
0.000839326
0.00072766
0.000636866
0.000566235
0.000508976
0.00046293
0.000432813
0.000428596
0.000463108
0.000549278
0.000696524
0.000906616
0.00117199
0.00147663
0.00179733
0.00211026
0.00239726
0.00264737
0.0028541
0.00301421
0.00312796
0.00319909
0.00323524
0.00324735
0.00324572
0.00323815
0.00322921
0.00322128
0.00320775
0.00318696
0.00318049
0.00317361
0.00316579
0.00315664
0.00314582
0.00313299
0.00314678
0.00315813
0.00316775
0.00317593
0.00318297
0.00318923
0.00319518
0.00321038
0.00322131
0.00322916
0.00323801
0.00324557
0.00324726
0.00323519
0.00319903
0.003128
0.0030143
0.00285419
0.00264754
0.00239757
0.00211066
0.00179786
0.00147729
0.00117274
0.00090739
0.000697224
0.000549779
0.000463284
0.000428327
0.000431986
0.000461412
0.000506532
0.000562315
0.000630377
0.000717821
0.000829899
0.000957899
0.00108002
0.00119502
0.00133288
0.0014737
0.0014787
0.0013688
0.00118255
0.000951858
0.000724195
0.00053058
0.000367345
0.000219487
0.000191565
0.000178233
0.000164088
0.000152119
0.000141806
0.000132929
0.000125301
0.000118738
0.000113131
0.000108352
0.000104289
0.000100844
9.79305e-05
9.54805e-05
9.34378e-05
9.17624e-05
9.04209e-05
8.93647e-05
8.85519e-05
8.79556e-05
8.75408e-05
8.72674e-05
8.71279e-05
8.70894e-05
8.70877e-05
8.70897e-05
8.70179e-05
8.68191e-05
8.64188e-05
8.57271e-05
8.46358e-05
8.25889e-05
7.95997e-05
7.56387e-05
7.04357e-05
6.36193e-05
5.4892e-05
4.41426e-05
3.19803e-05
1.99168e-05
9.05452e-06
3.85991e-07
2.10921e-07
3.93689e-07
4.67521e-07
3.73428e-07
2.91258e-07
2.26214e-07
1.76347e-07
1.38428e-07
1.10314e-07
9.00988e-08
7.85017e-08
7.54927e-08
7.93337e-08
8.22437e-08
8.43045e-08
8.75177e-08
9.49335e-08
1.09725e-07
1.24971e-07
1.3351e-07
1.36959e-07
1.40425e-07
1.98592e-07
6.63056e-07
2.32808e-06
3.59904e-06
5.10245e-06
7.48974e-06
1.09753e-05
1.59278e-05
2.14628e-05
2.79819e-05
3.78313e-05
5.35256e-05
7.92397e-05
0.000120296
0.000169383
0.000208133
0.000258501
0.000308069
0.00034833
0.000369757
0.00036113
0.000343002
0.000320252
0.00029586
0.000271351
0.000248419
0.000227656
0.000209086
0.000192892
0.000178636
0.000166262
0.000155431
0.00014596
0.000137541
0.000130146
0.00012356
0.0001177
0.000112478
0.000107816
0.000103683
0.000100066
9.69109e-05
9.41663e-05
9.18072e-05
8.98224e-05
8.82053e-05
8.69619e-05
8.60836e-05
8.55847e-05
8.55056e-05
8.59069e-05
8.68694e-05
8.84953e-05
9.09013e-05
9.42237e-05
9.86458e-05
0.000104431
0.000111917
0.000121458
0.000133553
0.000147576
0.000149228
0.000248312
2.27824e-05
5.40765e-05
0.000197183
0.000504112
0.000866231
0.00116073
0.00134867
0.0013887
0.00125206
0.00112658
0.0010438
0.000953894
0.00084087
0.000729071
0.000637802
0.000566793
0.000509314
0.000463132
0.000432912
0.000428609
0.000463051
0.000549169
0.000696386
0.000906469
0.00117185
0.00147651
0.00179724
0.00211019
0.00239721
0.00264733
0.00285408
0.00301419
0.00312795
0.00319908
0.00323524
0.00324735
0.00324572
0.00323815
0.00322921
0.00322128
0.00320773
0.00318691
0.00318044
0.00317355
0.00316572
0.00315657
0.00314574
0.0031329
0.00315008
0.00316107
0.00317041
0.00317836
0.00318521
0.00319133
0.00319715
0.00321101
0.00322132
0.00322915
0.00323797
0.00324554
0.00324724
0.00323517
0.00319902
0.00312801
0.00301432
0.0028542
0.00264757
0.00239763
0.00211073
0.00179796
0.0014774
0.00117287
0.000907525
0.000697349
0.000549873
0.000463324
0.000428294
0.000431858
0.000461166
0.000506124
0.000561644
0.000629232
0.000715966
0.000827837
0.000958706
0.00108951
0.0012161
0.00135914
0.00149446
0.00150254
0.0014024
0.00123027
0.0010196
0.00081259
0.000630895
0.000472008
0.000318876
0.000290681
0.000270679
0.00024951
0.000231407
0.000215667
0.000202012
0.000190214
0.00018004
0.000171312
0.000163841
0.000157469
0.000152047
0.000147448
0.000143564
0.00014031
0.000137617
0.000135424
0.000133661
0.000132265
0.000131189
0.000130376
0.000129754
0.000129312
0.000129
0.00012871
0.000128389
0.000127912
0.000127199
0.0001261
0.000124481
0.000122117
0.00011838
0.000112647
0.000105232
9.5696e-05
8.35281e-05
6.85896e-05
5.14972e-05
3.41899e-05
1.86961e-05
6.27001e-06
6.00881e-07
6.73626e-07
6.0999e-07
4.7633e-07
3.54991e-07
2.68033e-07
2.03575e-07
1.56344e-07
1.22268e-07
1.0237e-07
9.46189e-08
9.41469e-08
8.99307e-08
8.55091e-08
8.29022e-08
8.34838e-08
8.96253e-08
1.0341e-07
1.12848e-07
1.20027e-07
1.27254e-07
1.26191e-07
1.26448e-07
1.44184e-07
2.30651e-07
7.01362e-07
2.02013e-06
2.85598e-06
4.10171e-06
6.18457e-06
9.67606e-06
1.49274e-05
2.21342e-05
2.94064e-05
4.04376e-05
5.77761e-05
8.49071e-05
0.000128645
0.000197514
0.000237657
0.000295211
0.00035775
0.000415513
0.00045671
0.000459598
0.000444754
0.000421777
0.000394268
0.000365969
0.000338685
0.000313183
0.000290298
0.000269719
0.000251636
0.000235678
0.000221697
0.000209271
0.000198377
0.000188693
0.000180124
0.000172561
0.000165852
0.000159957
0.000154868
0.000150507
0.000146798
0.000143716
0.000141258
0.000139425
0.000138234
0.000137692
0.000137834
0.000138734
0.0001405
0.000143268
0.000147205
0.000152493
0.000159337
0.000168016
0.000178943
0.000192653
0.000209718
0.000230913
0.000255279
0.000261226
0.000377981
5.36175e-05
6.49673e-05
0.000180063
0.000443134
0.000803274
0.0011196
0.00132817
0.00138472
0.00125974
0.00113336
0.00104676
0.000955619
0.000842932
0.000730952
0.000639055
0.000567538
0.000509764
0.0004634
0.000433042
0.000428626
0.000462976
0.000549027
0.000696204
0.000906277
0.00117167
0.00147635
0.00179711
0.00211009
0.00239714
0.00264729
0.00285405
0.00301418
0.00312794
0.00319908
0.00323524
0.00324735
0.00324572
0.00323816
0.00322921
0.00322128
0.00320772
0.00318686
0.00318039
0.00317349
0.00316566
0.00315651
0.00314567
0.00313282
0.00315367
0.00316428
0.00317331
0.00318101
0.00318766
0.00319361
0.0031993
0.0032117
0.00322133
0.00322914
0.00323794
0.00324551
0.00324721
0.00323516
0.003199
0.00312802
0.00301435
0.00285422
0.00264761
0.00239771
0.00211083
0.00179808
0.00147755
0.00117304
0.000907708
0.000697519
0.000550003
0.000463386
0.000428262
0.000431708
0.000460867
0.000505626
0.000560823
0.000627823
0.000713641
0.000825009
0.000958586
0.00109854
0.00123784
0.00138678
0.00151691
0.00152971
0.00144203
0.00128739