/*--------------------------------*- C++ -*----------------------------------*\
| =========                 |                                                 |
| \\      /  F ield         | OpenFOAM: The Open Source CFD Toolbox           |
|  \\    /   O peration     | Version:  2112                                  |
|   \\  /    A nd           | Website:  www.openfoam.com                      |
|    \\/     M anipulation  |                                                 |
\*---------------------------------------------------------------------------*/
FoamFile
{
    version     2.0;
    format      ascii;
    arch        "LSB;label=32;scalar=64";
    class       surfaceScalarField;
    location    "1402";
    object      phi;
}
// * * * * * * * * * * * * * * * * * * * * * * * * * * * * * * * * * * * * * //

dimensions      [0 3 -1 0 0 0 0];

oriented        oriented;

internalField   nonuniform List<scalar> 
28432
(
-0.000183473
863.991
-863.991
-0.000183469
698.473
-698.473
-0.000183467
564.619
-564.619
-0.000183466
456.365
-456.365
-0.000183465
368.826
-368.826
-0.000183465
298.041
-298.041
-0.000183465
240.805
-240.805
-0.000183466
194.525
-194.525
-0.000183467
157.105
-157.105
-0.000183469
126.849
-126.849
-0.000183472
102.387
-102.387
-0.000183385
82.6082
-82.6082
-0.000183478
66.6176
-66.6176
-0.000183479
53.6898
-53.6898
-0.000183389
43.2385
-43.2385
-0.000183471
34.7898
-34.7898
-0.000183463
27.9613
-27.9613
-0.000183461
22.4441
-22.4441
-0.000183477
17.9886
-17.9886
-0.00018352
14.3927
-14.3927
-0.000183584
11.4922
-11.4922
-0.000183646
9.15377
-9.15377
-0.000183663
7.2694
-7.2694
-0.000183599
5.75213
-5.75213
-0.000183462
4.53278
-4.53278
-0.000183307
3.55631
-3.55631
-0.000183183
2.77804
-2.77804
-0.000183085
2.16068
-2.16068
-0.000182962
1.67302
-1.67302
-0.000182769
1.28952
-1.28952
-0.000182491
0.989635
-0.989636
-0.000182151
0.756731
-0.756731
-0.000181798
0.577191
-0.577191
-0.000181468
0.43981
-0.439811
-0.000181035
0.335298
-0.335299
-0.000180045
0.255929
-0.25593
-0.000177818
0.195453
-0.195455
-0.000173899
0.149186
-0.14919
-0.000168383
0.113891
-0.113896
-0.000161794
0.087262
-0.0872686
-0.000154747
0.0674078
-0.0674149
-0.000147627
0.0526288
-0.052636
-0.000140573
0.0414862
-0.0414933
-0.000133534
0.0328871
-0.0328942
-0.00012612
0.0260443
-0.0260518
-0.000116788
0.0203643
-0.0203737
-9.90191e-05
0.0153737
-0.0153915
-4.52734e-05
0.0107827
-0.0108364
-2.17065e-06
-4.31027e-05
-2.26334e-06
9.26932e-08
-2.29996e-06
3.66124e-08
-2.33133e-06
3.13665e-08
-2.36134e-06
3.00083e-08
-2.38888e-06
2.75471e-08
-2.41514e-06
2.62541e-08
-2.4392e-06
2.40607e-08
-2.46119e-06
2.19906e-08
-2.48254e-06
2.13143e-08
-2.50339e-06
2.08761e-08
-2.52371e-06
2.0313e-08
-2.54342e-06
1.97079e-08
-2.5625e-06
1.90756e-08
-2.5811e-06
1.85983e-08
-2.59949e-06
1.83839e-08
-2.61821e-06
1.87153e-08
-2.63758e-06
1.93221e-08
-2.6574e-06
1.98598e-08
-2.67767e-06
2.02593e-08
-2.69846e-06
2.07871e-08
-2.71971e-06
2.12447e-08
-2.74145e-06
2.17406e-08
-2.76345e-06
2.20009e-08
-2.78459e-06
2.11285e-08
-2.80362e-06
1.90265e-08
-2.81889e-06
1.5276e-08
-2.82846e-06
9.56537e-09
-2.8303e-06
1.83291e-09
-2.8223e-06
-8.05283e-09
-2.80224e-06
-2.00117e-08
-2.76732e-06
-3.49543e-08
-2.71525e-06
-5.20378e-08
-2.64494e-06
-7.03136e-08
-2.55459e-06
-9.03521e-08
-2.44174e-06
-1.12854e-07
-2.30494e-06
-1.36799e-07
-2.14102e-06
-1.63923e-07
-1.94995e-06
-1.91061e-07
-1.73426e-06
-2.15694e-07
-1.48573e-06
-2.48527e-07
-1.22917e-06
-2.56569e-07
-1.0003e-06
-2.28871e-07
-7.19203e-07
-2.81095e-07
-2.87899e-07
-4.31301e-07
3.37511e-07
-6.25414e-07
1.23043e-06
-8.92924e-07
2.48624e-06
-1.25581e-06
4.19663e-06
-1.71039e-06
6.45126e-06
-2.25457e-06
9.31781e-06
-2.86663e-06
1.28208e-05
-3.503e-06
1.69797e-05
-4.15893e-06
2.20257e-05
-5.04585e-06
2.82989e-05
-6.27335e-06
3.54761e-05
-7.17718e-06
4.3223e-05
-7.74692e-06
5.14876e-05
-8.26457e-06
6.0114e-05
-8.62642e-06
6.9409e-05
-9.29506e-06
8.01458e-05
-1.07367e-05
9.30119e-05
-1.28661e-05
0.000109562
-1.65497e-05
0.000124812
-1.52502e-05
0.000109076
1.57361e-05
9.63343e-05
1.27414e-05
8.53749e-05
1.09594e-05
7.70479e-05
8.327e-06
7.06858e-05
6.36211e-06
6.51242e-05
5.56159e-06
5.98636e-05
5.26059e-06
5.48064e-05
5.05721e-06
4.99056e-05
4.90081e-06
4.51367e-05
4.76892e-06
4.02757e-05
4.86099e-06
3.54124e-05
4.86332e-06
3.09794e-05
4.43297e-06
2.70278e-05
3.95157e-06
2.35564e-05
3.47146e-06
2.06011e-05
2.95524e-06
1.81538e-05
2.4473e-06
1.60946e-05
2.05926e-06
1.43174e-05
1.77713e-06
1.28041e-05
1.5133e-06
1.15217e-05
1.28215e-06
1.04275e-05
1.09449e-06
9.49126e-06
9.36209e-07
8.68571e-06
8.05546e-07
7.97731e-06
7.08407e-07
7.35025e-06
6.26787e-07
6.79884e-06
5.51662e-07
6.31019e-06
4.88644e-07
5.87368e-06
4.36515e-07
5.48078e-06
3.929e-07
5.12256e-06
3.57982e-07
4.79423e-06
3.28523e-07
4.49091e-06
3.03161e-07
4.20865e-06
2.82437e-07
3.94654e-06
2.6198e-07
3.70421e-06
2.42455e-07
3.47878e-06
2.25421e-07
3.26849e-06
2.10294e-07
3.07277e-06
1.95723e-07
2.89098e-06
1.81781e-07
2.72184e-06
1.69144e-07
2.5639e-06
1.5794e-07
2.41512e-06
1.48777e-07
2.27345e-06
1.41664e-07
2.13727e-06
1.36182e-07
2.00531e-06
1.31926e-07
1.87654e-06
1.28802e-07
1.74986e-06
1.26663e-07
1.62443e-06
1.25443e-07
1.50024e-06
1.24196e-07
1.37777e-06
1.22474e-07
1.25779e-06
1.19973e-07
1.14135e-06
1.16438e-07
1.02926e-06
1.12132e-07
9.21818e-07
1.0741e-07
8.19211e-07
1.02606e-07
7.22217e-07
9.69948e-08
6.32647e-07
8.95693e-08
5.52433e-07
8.02314e-08
4.81639e-07
7.07776e-08
4.19224e-07
6.2424e-08
3.49065e-07
7.01492e-08
1.93881e-08
3.29677e-07
4.31552e-05
-4.31358e-05
9.87406e-05
0.0107271
0.000116744
0.0153557
0.00012609
0.020355
0.000133508
0.0260369
0.00014055
0.0328801
0.000147607
0.0414792
0.000154729
0.0526217
0.00016178
0.0674008
0.000168373
0.0872554
0.000173893
0.113885
0.000177815
0.149182
0.000180044
0.19545
0.000181035
0.255928
0.000181468
0.335298
0.000181798
0.43981
0.000182151
0.57719
0.000182491
0.75673
0.000182769
0.989635
0.000182962
1.28952
0.000183085
1.67302
0.000183183
2.16068
0.000183307
2.77804
0.000183462
3.55631
0.000183599
4.53278
0.000183663
5.75213
0.000183646
7.2694
0.000183584
9.15377
0.00018352
11.4922
0.000183477
14.3927
0.000183461
17.9886
0.000183463
22.4441
0.000183471
27.9613
0.000183566
34.7898
0.000183479
43.2385
0.000183478
53.6898
0.000183564
66.6176
0.000183472
82.6082
0.000183469
102.387
0.000183467
126.849
0.000183466
157.105
0.000183465
194.525
0.000183465
240.805
0.000183465
298.041
0.000183466
368.826
0.000183467
456.365
0.000183469
564.619
0.000183473
698.473
863.991
-0.000241466
-863.991
-0.000241462
-698.473
-0.00024146
-564.619
-0.00024146
-456.365
-0.00024146
-368.826
-0.000241461
-298.041
-0.000241464
-240.805
-0.000241468
-194.525
-0.000241473
-157.105
-0.000241479
-126.849
-0.000241487
-102.387
-0.000241497
-82.6082
-0.000241508
-66.6176
-0.000241519
-53.6898
-0.000241528
-43.2385
-0.000241533
-34.7898
-0.000241539
-27.9613
-0.000241558
-22.4441
-0.000241597
-17.9886
-0.000241693
-14.3927
-0.000241818
-11.4922
-0.000241949
-9.15377
-0.000242033
-7.2694
-0.000242025
-5.75213
-0.00024193
-4.53278
-0.000241847
-3.55631
-0.000241826
-2.77804
-0.000241872
-2.16068
-0.000241928
-1.67302
-0.00024194
-1.28952
-0.000241903
-0.989636
-0.00024186
-0.756731
-0.000241894
-0.577191
-0.000242073
-0.43981
-0.000242257
-0.335298
-0.000241866
-0.25593
-0.000240013
-0.195457
-0.000236097
-0.149194
-0.000230241
-0.113902
-0.000223157
-0.0872757
-0.000215691
-0.0674223
-0.000208396
-0.0526433
-0.000201488
-0.0415002
-0.000194922
-0.0329007
-0.000188125
-0.0260586
-0.000178705
-0.0203831
-0.000156491
-0.0154137
-7.88529e-05
-0.010914
-1.2658e-05
-0.000109298
-1.25949e-05
2.96106e-08
-1.24472e-05
-1.11115e-07
-1.23098e-05
-1.06003e-07
-1.2199e-05
-8.07707e-08
-1.21062e-05
-6.52844e-08
-1.20341e-05
-4.58175e-08
-1.19754e-05
-3.46412e-08
-1.19281e-05
-2.53177e-08
-1.18968e-05
-1.00714e-08
-1.188e-05
4.13731e-09
-1.18755e-05
1.58339e-08
-1.18812e-05
2.53613e-08
-1.18957e-05
3.35393e-08
-1.19181e-05
4.10053e-08
-1.19487e-05
4.89396e-08
-1.19889e-05
5.89761e-08
-1.20392e-05
6.95334e-08
-1.20982e-05
7.89464e-08
-1.21653e-05
8.73339e-08
-1.22404e-05
9.58198e-08
-1.23226e-05
1.0347e-07
-1.24122e-05
1.11318e-07
-1.25078e-05
1.17618e-07
-1.26044e-05
1.17737e-07
-1.26966e-05
1.11212e-07
-1.2777e-05
9.55977e-08
-1.28369e-05
6.94689e-08
-1.28675e-05
3.24717e-08
-1.28596e-05
-1.6105e-08
-1.2803e-05
-7.64759e-08
-1.26851e-05
-1.52904e-07
-1.24953e-05
-2.41773e-07
-1.22278e-05
-3.37789e-07
-1.18736e-05
-4.44574e-07
-1.14196e-05
-5.66853e-07
-1.08568e-05
-6.99645e-07
-1.01666e-05
-8.5415e-07
-9.34434e-06
-1.01327e-06
-8.39643e-06
-1.16361e-06
-7.27526e-06
-1.36971e-06
-6.09545e-06
-1.43638e-06
-5.03539e-06
-1.28893e-06
-3.68535e-06
-1.63113e-06
-1.50578e-06
-2.61087e-06
1.80249e-06
-3.93369e-06
6.7395e-06
-5.82994e-06
1.39982e-05
-8.51452e-06
2.43561e-05
-1.20683e-05
3.87123e-05
-1.66106e-05
5.80033e-05
-2.21579e-05
8.30907e-05
-2.85904e-05
0.000115027
-3.60956e-05
0.000156734
-4.67525e-05
0.000212534
-6.20734e-05
0.000281863
-7.65059e-05
0.000363552
-8.9436e-05
0.000458338
-0.00010305
0.000565603
-0.000115891
0.00068819
-0.000131882
0.000832589
-0.000155136
0.00100293
-0.000183211
0.00121103
-0.000224649
0.00141053
-0.000214742
0.00121657
0.000209693
0.00103466
0.000194651
0.000884176
0.000161441
0.000766981
0.000125522
0.000672274
0.000101069
0.000589909
8.79273e-05
0.000516211
7.89582e-05
0.000450172
7.10964e-05
0.000390907
6.41659e-05
0.000337652
5.80241e-05
0.000288327
5.41853e-05
0.000243116
5.00746e-05
0.000204269
4.32798e-05
0.000171449
3.67718e-05
0.000144032
3.08886e-05
0.000121672
2.53153e-05
0.00010381
2.03088e-05
8.93452e-05
1.65242e-05
7.73734e-05
1.37489e-05
6.75461e-05
1.13406e-05
5.94868e-05
9.34091e-06
5.28212e-05
7.76063e-06
4.72788e-05
6.47854e-06
4.26343e-05
5.45005e-06
3.86576e-05
4.68516e-06
3.52237e-05
4.06011e-06
3.22678e-05
3.50803e-06
2.96996e-05
3.0569e-06
2.74472e-05
2.68887e-06
2.54544e-05
2.38577e-06
2.36667e-05
2.14524e-06
2.2052e-05
1.94354e-06
2.05805e-05
1.77434e-06
1.92282e-05
1.63505e-06
1.79861e-05
1.50389e-06
1.68488e-05
1.37996e-06
1.58004e-05
1.27386e-06
1.48303e-05
1.18041e-06
1.39342e-05
1.09181e-06
1.31078e-05
1.00811e-06
1.23443e-05
9.3269e-07
1.16362e-05
8.66069e-07
1.09735e-05
8.11427e-07
1.03465e-05
7.68635e-07
9.74752e-06
7.35197e-07
9.17021e-06
7.0917e-07
8.60979e-06
6.89288e-07
8.06061e-06
6.75809e-07
7.51845e-06
6.6763e-07
6.98276e-06
6.5989e-07
6.45509e-06
6.5014e-07
5.93856e-06
6.36511e-07
5.43711e-06
6.17884e-07
4.95403e-06
5.95277e-07
4.49019e-06
5.712e-07
4.04565e-06
5.47146e-07
3.6234e-06
5.19243e-07
3.23176e-06
4.81202e-07
2.88034e-06
4.31691e-07
2.57008e-06
3.81009e-07
2.2962e-06
3.36319e-07
1.9699e-06
3.96424e-07
3.43031e-07
1.95655e-06
6.93251e-05
-0.000112118
0.000154901
0.0106415
0.000178465
0.0153321
0.000187968
0.0203455
0.00019479
0.0260301
0.000201375
0.0328735
0.000208298
0.0414722
0.000215609
0.0526144
0.000223091
0.0673933
0.000230194
0.0872483
0.000236068
0.11388
0.000240001
0.149178
0.000241863
0.195449
0.000242258
0.255928
0.000242074
0.335298
0.000241894
0.43981
0.00024186
0.577191
0.000241903
0.75673
0.00024194
0.989635
0.000241928
1.28952
0.000241872
1.67302
0.000241826
2.16068
0.000241847
2.77804
0.000241945
3.55631
0.000242025
4.53278
0.000242033
5.75213
0.000241949
7.2694
0.000241818
9.15377
0.000241693
11.4922
0.000241614
14.3927
0.000241558
17.9886
0.000241539
22.4441
0.000241533
27.9613
0.000241528
34.7898
0.000241519
43.2385
0.000241508
53.6898
0.000241497
66.6176
0.000241487
82.6082
0.000241479
102.387
0.000241473
126.849
0.000241468
157.105
0.000241464
194.525
0.000241461
240.805
0.00024146
298.041
0.00024146
368.826
0.00024146
456.365
0.000241462
564.619
0.000241466
698.473
863.991
-0.000317791
-863.991
-0.000317786
-698.473
-0.000317785
-564.619
-0.000317785
-456.365
-0.000316887
-368.826
-0.000317792
-298.041
-0.000317798
-240.805
-0.000317806
-194.525
-0.000317817
-157.105
-0.00031783
-126.849
-0.000317847
-102.387
-0.000317867
-82.6082
-0.000317892
-66.6176
-0.000317918
-53.6898
-0.000317945
-43.2385
-0.00031797
-34.7898
-0.000318
-27.9613
-0.000318053
-22.4441
-0.00031815
-17.9886
-0.000318308
-14.3927
-0.000318524
-11.4922
-0.000318762
-9.15377
-0.000318953
-7.2694
-0.000319041
-5.75213
-0.000319049
-4.53278
-0.000319081
-3.55631
-0.00031924
-2.77804
-0.000319532
-2.16068
-0.00031989
-1.67302
-0.000320258
-1.28952
-0.000320642
-0.989635
-0.000321117
-0.75673
-0.000321817
-0.57719
-0.000322861
-0.439809
-0.000324096
-0.335297
-0.000324784
-0.25593
-0.000323766
-0.195458
-0.000320247
-0.149197
-0.000314393
-0.113908
-0.000307165
-0.0872829
-0.000299726
-0.0674298
-0.000292862
-0.0526501
-0.000286906
-0.0415061
-0.000281827
-0.0329058
-0.000276794
-0.0260636
-0.000268191
-0.0203917
-0.000241002
-0.0154409
-0.000136831
-0.0110182
-4.22369e-05
-0.000203892
-4.0465e-05
-1.74225e-06
-3.90004e-05
-1.57573e-06
-3.77097e-05
-1.39674e-06
-3.66158e-05
-1.17467e-06
-3.56782e-05
-1.00285e-06
-3.48906e-05
-8.334e-07
-3.42193e-05
-7.0594e-07
-3.36484e-05
-5.96271e-07
-3.31816e-05
-4.76941e-07
-3.28068e-05
-3.70555e-07
-3.25107e-05
-2.80266e-07
-3.22817e-05
-2.03693e-07
-3.21107e-05
-1.37413e-07
-3.19913e-05
-7.84781e-08
-3.19203e-05
-2.2017e-08
-3.18985e-05
3.71718e-08
-3.19245e-05
9.53973e-08
-3.19923e-05
1.46831e-07
-3.20985e-05
1.93482e-07
-3.22412e-05
2.38572e-07
-3.24179e-05
2.80164e-07
-3.2628e-05
3.21393e-07
-3.28679e-05
3.57515e-07
-3.31242e-05
3.74039e-07
-3.3383e-05
3.69993e-07
-3.36254e-05
3.3792e-07
-3.38294e-05
2.73546e-07
-3.39729e-05
1.7591e-07
-3.40316e-05
4.24633e-08
-3.39798e-05
-1.28115e-07
-3.37839e-05
-3.48857e-07
-3.34153e-05
-6.10413e-07
-3.28571e-05
-8.95894e-07
-3.20825e-05
-1.21926e-06
-3.10521e-05
-1.59725e-06
-2.97343e-05
-2.01741e-06
-2.80689e-05
-2.51951e-06
-2.60296e-05
-3.05264e-06
-2.36177e-05
-3.57546e-06
-2.06772e-05
-4.31024e-06
-1.75172e-05
-4.59638e-06
-1.46603e-05
-4.14581e-06
-1.08963e-05
-5.3952e-06
-4.53466e-06
-8.97246e-06
5.48697e-06
-1.39553e-05
2.09375e-05
-2.12805e-05
4.43345e-05
-3.19116e-05
7.86597e-05
-4.63935e-05
0.000127518
-6.54691e-05
0.000194918
-8.95572e-05
0.000284905
-0.000118578
0.000402335
-0.000153525
0.000556341
-0.000200758
0.000754117
-0.000259849
0.000986906
-0.000309295
0.00124728
-0.000349812
0.00154079
-0.000396558
0.00187594
-0.000451046
0.00226228
-0.000518221
0.00271153
-0.000604378
0.00323227
-0.000703955
0.0038483
-0.000840678
0.00444272
-0.000809161
0.00390877
0.000743643
0.00336127
0.000742151
0.00288043
0.000642277
0.00247725
0.0005287
0.00214284
0.000435484
0.00186047
0.000370298
0.00161612
0.000323305
0.0014002
0.000287015
0.00120726
0.000257104
0.00103444
0.000230847
0.000880288
0.000208336
0.000745115
0.000185248
0.000629012
0.000159382
0.000529983
0.000135801
0.000445989
0.000114882
0.000376005
9.52991e-05
0.000318809
7.75047e-05
0.000271826
6.35073e-05
0.000232827
5.27477e-05
0.000200801
4.33666e-05
0.000174615
3.55267e-05
0.000153104
2.92717e-05
0.000135382
2.42005e-05
0.000120695
2.01377e-05
0.000108293
1.70871e-05
9.77374e-05
1.46149e-05
8.87704e-05
1.24755e-05
8.10835e-05
1.07438e-05
7.44312e-05
9.34114e-06
6.8622e-05
8.19502e-06
6.34788e-05
7.28787e-06
5.88915e-05
6.53132e-06
5.47602e-05
5.9053e-06
5.1006e-05
5.38956e-06
4.75929e-05
4.91678e-06
4.44964e-05
4.47668e-06
4.16668e-05
4.10349e-06
3.90699e-05
3.77728e-06
3.66895e-05
3.47225e-06
3.45103e-05
3.18727e-06
3.25113e-05
2.93167e-06
3.06708e-05
2.70654e-06
2.89611e-05
2.5212e-06
2.7355e-05
2.37469e-06
2.58309e-05
2.25926e-06
2.43718e-05
2.16827e-06
2.29635e-05
2.09762e-06
2.15906e-05
2.04866e-06
2.02405e-05
2.01776e-06
1.89106e-05
1.98979e-06
1.76034e-05
1.95738e-06
1.63256e-05
1.91429e-06
1.50865e-05
1.85702e-06
1.38933e-05
1.7885e-06
1.27471e-05
1.71735e-06
1.16462e-05
1.64804e-06
1.05971e-05
1.56835e-06
9.62199e-06
1.4563e-06
8.74876e-06
1.30497e-06
7.98235e-06
1.14738e-06
7.31004e-06
1.00865e-06
6.45228e-06
1.25416e-06
1.8534e-06
6.55543e-06
0.000106972
-0.000217236
0.000235841
0.0105126
0.000267415
0.0153006
0.00027631
0.0203366
0.000281431
0.026025
0.00028658
0.0328683
0.000292587
0.0414662
0.000299499
0.0526075
0.000306986
0.0673858
0.000314266
0.087241
0.000320172
0.113874
0.000323732
0.149174
0.000324775
0.195448
0.000324097
0.255928
0.000322864
0.335299
0.000321818
0.439811
0.000321117
0.577191
0.000320642
0.756731
0.000320258
0.989635
0.000319891
1.28952
0.000319532
1.67302
0.00031924
2.16068
0.000319081
2.77804
0.000319049
3.55631
0.000319041
4.53278
0.000318953
5.75213
0.000318762
7.2694
0.000318524
9.15377
0.000318308
11.4922
0.00031815
14.3927
0.000318053
17.9886
0.000318
22.4441
0.00031797
27.9613
0.000317945
34.7898
0.000317918
43.2385
0.000317892
53.6898
0.000317867
66.6176
0.000317847
82.6082
0.00031783
102.387
0.000317817
126.849
0.000317806
157.105
0.000317798
194.525
0.000317792
240.805
0.000318689
298.041
0.000317785
368.826
0.000317785
456.365
0.000317786
564.619
0.000317791
698.473
863.991
-0.00041824
-863.991
-0.000418235
-698.473
-0.000418236
-564.619
-0.000418238
-456.365
-0.000418243
-368.826
-0.000418252
-298.041
-0.000418263
-240.805
-0.000418278
-194.525
-0.000418297
-157.105
-0.000418322
-126.849
-0.000418352
-102.387
-0.000418389
-82.6082
-0.000418434
-66.6176
-0.000418485
-53.6898
-0.000418539
-43.2385
-0.000418595
-34.7898
-0.000418665
-27.9613
-0.000418771
-22.4441
-0.000418944
-17.9886
-0.0004192
-14.3927
-0.000419562
-11.4922
-0.00041996
-9.15377
-0.000420318
-7.2694
-0.000420565
-5.75213
-0.000420736
-4.53278
-0.000420977
-3.55631
-0.000421432
-2.77804
-0.000422121
-2.16068
-0.000422968
-1.67302
-0.000423914
-1.28952
-0.000424988
-0.989634
-0.000426314
-0.756729
-0.000428099
-0.577189
-0.000430537
-0.439807
-0.000433468
-0.335294
-0.000435957
-0.255927
-0.000436491
-0.195457
-0.000434019
-0.1492
-0.000428762
-0.113913
-0.000422016
-0.0872896
-0.000415381
-0.0674364
-0.000409959
-0.0526555
-0.000406267
-0.0415098
-0.000404283
-0.0329078
-0.000402844
-0.026065
-0.000396569
-0.020398
-0.000364366
-0.0154731
-0.000239753
-0.0111428
-0.00011578
-0.000327865
-0.000107768
-9.75422e-06
-0.000101734
-7.60922e-06
-9.65227e-05
-6.60845e-06
-9.2098e-05
-5.59938e-06
-8.83183e-05
-4.78252e-06
-8.51255e-05
-4.02629e-06
-8.2403e-05
-3.42838e-06
-8.00839e-05
-2.91544e-06
-7.81516e-05
-2.40933e-06
-7.6556e-05
-1.96606e-06
-7.5248e-05
-1.58829e-06
-7.41851e-05
-1.26663e-06
-7.33338e-05
-9.88663e-07
-7.26687e-05
-7.43615e-07
-7.21725e-05
-5.18265e-07
-7.1839e-05
-2.96262e-07
-7.16582e-05
-8.55554e-08
-7.16121e-05
1.00846e-07
-7.16893e-05
2.70663e-07
-7.18828e-05
4.32049e-07
-7.21838e-05
5.81122e-07
-7.25899e-05
7.2744e-07
-7.30918e-05
8.59445e-07
-7.36607e-05
9.42883e-07
-7.42659e-05
9.75187e-07
-7.48672e-05
9.39293e-07
-7.54184e-05
8.24739e-07
-7.58718e-05
6.29245e-07
-7.61762e-05
3.46775e-07
-7.6276e-05
-2.82451e-08
-7.60958e-05
-5.29084e-07
-7.55706e-05
-1.13554e-06
-7.46602e-05
-1.80634e-06
-7.32979e-05
-2.58158e-06
-7.13838e-05
-3.51138e-06
-6.88287e-05
-4.5725e-06
-6.54679e-05
-5.88032e-06
-6.1205e-05
-7.3155e-06
-5.60021e-05
-8.77837e-06
-4.94332e-05
-1.08791e-05
-4.22065e-05
-1.18232e-05
-3.56417e-05
-1.07106e-05
-2.67866e-05
-1.42503e-05
-1.13223e-05
-2.44367e-05
1.3599e-05
-3.88767e-05
5.26369e-05
-6.03184e-05
0.000112377
-9.16519e-05
0.000200492
-0.000134508
0.000325971
-0.000190948
0.000498242
-0.000261828
0.000725741
-0.000346077
0.00101531
-0.000443091
0.00136929
-0.000554743
0.00178105
-0.000671609
0.00224746
-0.000775704
0.00277437
-0.000876723
0.00337142
-0.000993613
0.0040541
-0.00113372
0.00483908
-0.0013032
0.00574405
-0.00150935
0.00678428
-0.00174419
0.00798455
-0.00204094
0.00902058
-0.00184519
0.00820303
0.00156119
0.0071819
0.00176328
0.00625681
0.00156736
0.00542874
0.00135677
0.00469598
0.00116824
0.00405258
0.00101371
0.00349141
0.000884472
0.00300133
0.000777099
0.00257054
0.000687893
0.00218947
0.000611916
0.00185524
0.000542562
0.00156745
0.000473046
0.0013228
0.000404028
0.0011164
0.0003422
0.00094282
0.000288464
0.00079827
0.000239849
0.000679358
0.000196416
0.00058188
0.000160986
0.000501765
0.000132863
0.000435843
0.000109288
0.000381583
8.97864e-05
0.000336619
7.42368e-05
0.000299188
6.16313e-05
0.000267819
5.15061e-05
0.000241082
4.38242e-05
0.000218099
3.75979e-05
0.000198352
3.22225e-05
0.000181254
2.78424e-05
0.000166343
2.42522e-05
0.000153257
2.12808e-05
0.00014165
1.88943e-05
0.000131295
1.68865e-05
0.00012198
1.52196e-05
0.000113537
1.38337e-05
0.000105884
1.25696e-05
9.89635e-05
1.13971e-05
9.26627e-05
1.04042e-05
8.69037e-05
9.53627e-06
8.16469e-05
8.72907e-06
7.68556e-05
7.97858e-06
7.24815e-05
7.30576e-06
6.84756e-05
6.71247e-06
6.47755e-05
6.22125e-06
6.13209e-05
5.82931e-06
5.80628e-05
5.51741e-06
5.49622e-05
5.26872e-06
5.19874e-05
5.07258e-06
4.91019e-05
4.93408e-06
4.62763e-05
4.84343e-06
4.35022e-05
4.7639e-06
4.07834e-05
4.67614e-06
3.81321e-05
4.56561e-06
3.5567e-05
4.4221e-06
3.31024e-05
4.25323e-06
3.07382e-05
4.08145e-06
2.84678e-05
3.91841e-06
2.63032e-05
3.73297e-06
2.42952e-05
3.46427e-06
2.2513e-05
3.08729e-06
2.09754e-05
2.68488e-06
1.96543e-05
2.32984e-06
1.78246e-05
3.08379e-06
8.06534e-06
1.63147e-05
0.000161491
-0.000370662
0.000350667
0.0103235
0.000394461
0.0152568
0.000401609
0.0203294
0.00040331
0.0260233
0.000405467
0.0328662
0.000409304
0.0414624
0.000414842
0.052602
0.000421602
0.067379
0.000428472
0.0872341
0.00043385
0.113868
0.000436416
0.149172
0.000435938
0.195448
0.00043347
0.255931
0.000430542
0.335302
0.000428102
0.439814
0.000426315
0.577193
0.000424989
0.756732
0.000423915
0.989636
0.000422968
1.28952
0.000422122
1.67302
0.000421433
2.16068
0.000420978
2.77804
0.000420736
3.55631
0.000420565
4.53278
0.000420318
5.75213
0.00041996
7.2694
0.000419562
9.15377
0.000419217
11.4922
0.000418944
14.3927
0.000418771
17.9886
0.000418665
22.4441
0.000418595
27.9613
0.000418539
34.7898
0.000418485
43.2385
0.000418434
53.6898
0.000418389
66.6176
0.000418352
82.6082
0.000418322
102.387
0.000418297
126.849
0.000418278
157.105
0.000418263
194.525
0.000418252
240.805
0.000418243
298.041
0.000418238
368.826
0.000418236
456.365
0.000418235
564.619
0.00041824
698.473
863.991
-0.000550441
-863.991
-0.000550436
-698.473
-0.000550438
-564.619
-0.000550444
-456.365
-0.000550454
-368.826
-0.000550469
-298.041
-0.000550488
-240.805
-0.000550514
-194.525
-0.000550546
-157.105
-0.000550587
-126.849
-0.000550638
-102.387
-0.0005507
-82.6082
-0.000550776
-66.6176
-0.000550863
-53.6898
-0.00055096
-43.2385
-0.000551066
-34.7898
-0.000551197
-27.9613
-0.000551384
-22.4441
-0.000551672
-17.9886
-0.000552092
-14.3927
-0.000552649
-11.4922
-0.000553286
-9.15377
-0.000553896
-7.2694
-0.000554394
-5.75213
-0.00055483
-4.53278
-0.00055541
-3.55631
-0.000556333
-2.77804
-0.00055764
-2.16068
-0.000559248
-1.67302
-0.000561102
-1.28952
-0.000563265
-0.989632
-0.000565932
-0.756726
-0.000569417
-0.577185
-0.000574025
-0.439802
-0.000579602
-0.335289
-0.000584966
-0.255922
-0.000588141
-0.195454
-0.00058774
-0.1492
-0.000584062
-0.113917
-0.000578839
-0.0872949
-0.000574272
-0.067441
-0.00057193
-0.0526579
-0.00057255
-0.0415092
-0.000576181
-0.0329042
-0.000581172
-0.02606
-0.000579686
-0.0203995
-0.00054357
-0.0155092
-0.000413618
-0.0112728
-0.00026437
-0.000477113
-0.000245291
-2.88338e-05
-0.000228944
-2.39553e-05
-0.000214837
-2.07161e-05
-0.000202756
-1.76804e-05
-0.000192388
-1.51502e-05
-0.000183572
-1.2842e-05
-0.00017604
-1.09609e-05
-0.000169614
-9.34126e-06
-0.000164215
-7.80849e-06
-0.000159708
-6.47246e-06
-0.000155967
-5.33015e-06
-0.000152879
-4.35429e-06
-0.000150356
-3.5118e-06
-0.000148325
-2.77401e-06
-0.000146735
-2.10837e-06
-0.000145553
-1.4789e-06
-0.000144745
-8.93419e-07
-0.000144274
-3.69841e-07
-0.000144113
1.09387e-07
-0.000144241
5.60102e-07
-0.000144637
9.77475e-07
-0.000145293
1.38341e-06
-0.000146191
1.75665e-06
-0.000147273
2.02571e-06
-0.000148487
2.18886e-06
-0.000149758
2.21034e-06
-0.000151004
2.07086e-06
-0.000152141
1.76628e-06
-0.000153078
1.28349e-06
-0.000153713
6.0684e-07
-0.000153901
-3.41624e-07
-0.000153515
-1.521e-06
-0.00015248
-2.84176e-06
-0.000150657
-4.40469e-06
-0.000147827
-6.34114e-06
-0.000143769
-8.63082e-06
-0.000138079
-1.157e-05
-0.000130443
-1.49517e-05
-0.000120612
-1.86095e-05
-0.000107461
-2.40296e-05
-9.23486e-05
-2.69356e-05
-7.8364e-05
-2.46952e-05
-5.92419e-05
-3.33724e-05
-2.53517e-05
-5.83269e-05
2.95329e-05
-9.37612e-05
0.000115189
-0.000145975
0.000244782
-0.000221244
0.000432171
-0.000321898
0.000691571
-0.000450347
0.00103502
-0.000605275
0.00147013
-0.000781194
0.00199979
-0.000972746
0.00262054
-0.00117549
0.00332601
-0.00137709
0.0041235
-0.00157318
0.00502871
-0.00178194
0.00605456
-0.00201947
0.00721731
-0.00229647
0.00853698
-0.00262287
0.0100377
-0.00301009
0.0117478
-0.00345426
0.0136966
-0.00398978
0.0148836
-0.00303218
0.0141435
0.00230137
0.0125377
0.003369
0.0111099
0.00299523
0.00982442
0.00264222
0.00865799
0.00233467
0.00758471
0.00208699
0.00658972
0.00187946
0.00567257
0.00169425
0.00483976
0.0015207
0.00409617
0.00135551
0.0034447
0.00119403
0.00288511
0.00103264
0.002413
0.000876134
0.00202083
0.00073437
0.0016971
0.000612202
0.00143104
0.00050591
0.00121422
0.000413231
0.00103826
0.000336949
0.000895549
0.000275571
0.000779541
0.000225296
0.000684834
0.000184493
0.000606852
0.000152219
0.000542174
0.000126309
0.000488126
0.000105554
0.000442319
8.96315e-05
0.000403038
7.68786e-05
0.000369196
6.60648e-05
0.000339725
5.73134e-05
0.000313828
5.01493e-05
0.000290915
4.41932e-05
0.00027045
3.93592e-05
0.000252065
3.52715e-05
0.000235418
3.18671e-05
0.000220238
2.90135e-05
0.000206404
2.64037e-05
0.000193823
2.39781e-05
0.000182314
2.19134e-05
0.000171755
2.00949e-05
0.000162084
1.83998e-05
0.000153241
1.6822e-05
0.000145147
1.53998e-05
0.000137723
1.41364e-05
0.000130863
1.30812e-05
0.00012446
1.22324e-05
0.000118427
1.15499e-05
0.000112695
1.10011e-05
0.000107203
1.05645e-05
0.000101881
1.02556e-05
9.66741e-05
1.00508e-05
9.15661e-05
9.8719e-06
8.65636e-05
9.67871e-06
8.16898e-05
9.43941e-06
7.69811e-05
9.13076e-06
7.24672e-05
8.76723e-06
6.81477e-05
8.40087e-06
6.40079e-05
8.05825e-06
6.0071e-05
7.66981e-06
5.64469e-05
7.08838e-06
5.32951e-05
6.2392e-06
5.06801e-05
5.2998e-06
4.85502e-05
4.45974e-06
4.52533e-05
6.38068e-06
2.91597e-05
3.24083e-05
0.000243107
-0.000584609
0.000510789
0.0100558
0.000574321
0.0151932
0.000578266
0.0203255
0.00057395
0.0260276
0.000570762
0.0328694
0.000570477
0.0414627
0.000573122
0.0525993
0.000577958
0.0673742
0.000583443
0.0872287
0.000587387
0.113864
0.000587986
0.149171
0.000584926
0.195451
0.000579608
0.255936
0.000574036
0.335308
0.000569423
0.439818
0.000565935
0.577197
0.000563267
0.756735
0.000561103
0.989639
0.000559249
1.28952
0.000557641
1.67302
0.000556334
2.16069
0.000555411
2.77804
0.000554831
3.55631
0.000554394
4.53279
0.000553896
5.75213
0.000553287
7.2694
0.000552649
9.15377
0.000552093
11.4922
0.000551672
14.3927
0.000551384
17.9886
0.000551197
22.4441
0.000551066
27.9613
0.00055096
34.7898
0.000550863
43.2385
0.000550776
53.6898
0.0005507
66.6176
0.000550638
82.6082
0.000550587
102.387
0.000550546
126.849
0.000550514
157.105
0.000550488
194.525
0.000550469
240.805
0.000550454
298.041
0.000550444
368.826
0.000550438
456.365
0.000550436
564.619
0.000550441
698.473
863.991
-0.000724428
-863.991
-0.000724424
-698.473
-0.00072443
-564.619
-0.00072444
-456.365
-0.000724458
-368.826
-0.000724482
-298.041
-0.000724514
-240.805
-0.000724465
-194.525
-0.000724607
-157.105
-0.000724583
-126.849
-0.000724753
-102.387
-0.000724853
-82.6082
-0.000724975
-66.6176
-0.000725117
-53.6898
-0.000725277
-43.2385
-0.000725458
-34.7898
-0.000725682
-27.9613
-0.000725992
-22.4441
-0.000726449
-17.9886
-0.000727099
-14.3927
-0.000727952
-11.4922
-0.000728939
-9.15377
-0.000729926
-7.26939
-0.000730806
-5.75213
-0.000731661
-4.53278
-0.000732761
-3.55631
-0.000734409
-2.77804
-0.000736655
-2.16068
-0.000739422
-1.67302
-0.000742663
-1.28951
-0.000746497
-0.989628
-0.000751221
-0.756722
-0.000757302
-0.577179
-0.000765209
-0.439794
-0.000774814
-0.335279
-0.000784624
-0.255912
-0.000792072
-0.195447
-0.000795318
-0.149197
-0.000794759
-0.113918
-0.000792744
-0.0872969
-0.000792261
-0.0674415
-0.000795517
-0.0526546
-0.000803624
-0.0415011
-0.000816706
-0.0328911
-0.000832485
-0.0260443
-0.000839785
-0.0203922
-0.000803114
-0.0155459
-0.000680238
-0.0113957
-0.000503054
-0.000654298
-0.000470204
-6.16837e-05
-0.000437044
-5.71158e-05
-0.000408414
-4.93456e-05
-0.000383639
-4.24556e-05
-0.000362203
-3.65861e-05
-0.000343832
-3.12131e-05
-0.000328116
-2.66771e-05
-0.000314713
-2.27438e-05
-0.000303369
-1.91529e-05
-0.000293824
-1.60178e-05
-0.000285829
-1.33243e-05
-0.000279173
-1.1011e-05
-0.000273674
-9.01106e-06
-0.000269184
-7.2636e-06
-0.000265588
-5.70446e-06
-0.000262797
-4.26982e-06
-0.000260741
-2.94909e-06
-0.000259358
-1.75363e-06
-0.000258595
-6.53012e-07
-0.000258412
3.77009e-07
-0.000258768
1.33292e-06
-0.000259644
2.25998e-06
-0.000261009
3.1218e-06
-0.000262776
3.79265e-06
-0.000264861
4.2732e-06
-0.000267153
4.50254e-06
-0.000269531
4.44882e-06
-0.000271872
4.10721e-06
-0.000274044
3.45587e-06
-0.000275895
2.45776e-06
-0.000277192
9.55048e-07
-0.000277741
-9.71593e-07
-0.00027744
-3.14296e-06
-0.000276075
-5.76964e-06
-0.000273281
-9.13518e-06
-0.000268659
-1.32527e-05
-0.00026149
-1.87388e-05
-0.000251057
-2.53849e-05
-0.000236501
-3.31655e-05
-0.000214986
-4.55449e-05
-0.000187585
-5.43364e-05
-0.000159864
-5.24161e-05
-0.000120753
-7.24835e-05
-5.20875e-05
-0.000126992
5.72145e-05
-0.000203063
0.000223272
-0.000312032
0.000465673
-0.000463646
0.000801086
-0.00065731
0.00124369
-0.000892952
0.00180391
-0.00116549
0.00248891
-0.0014662
0.00330382
-0.00178765
0.0042529
-0.00212457
0.00534189
-0.00246608
0.00658086
-0.00281215
0.00798361
-0.00318469
0.00956822
-0.00360408
0.0113594
-0.00408765
0.0133889
-0.00465237
0.015696
-0.0053172
0.0183335
-0.00609178
0.0211913
-0.0068475
0.0221096
-0.00395049
0.0219707
0.00244024
0.0196915
0.00564819
0.0175721
0.00511465
0.0157067
0.00450757
0.0140409
0.00400052
0.012524
0.00360389
0.0111091
0.0032943
0.00975895
0.00304444
0.00845385
0.0028258
0.0072055
0.00260387
0.00605098