/*--------------------------------*- C++ -*----------------------------------*\
| =========                 |                                                 |
| \\      /  F ield         | OpenFOAM: The Open Source CFD Toolbox           |
|  \\    /   O peration     | Version:  v2112                                 |
|   \\  /    A nd           | Website:  www.openfoam.com                      |
|    \\/     M anipulation  |                                                 |
\*---------------------------------------------------------------------------*/
FoamFile
{
    version     2.0;
    format      ascii;
    class       volScalarField;
    object      nut;
}
// * * * * * * * * * * * * * * * * * * * * * * * * * * * * * * * * * * * * * //

dimensions      [0 2 -1 0 0 0 0];

internalField   uniform 1E-15;

boundaryField
{
    inlet
    {
        type        calculated;
        value 		uniform 1E-10;
    }

    outlet
    {
        type        calculated;
        value		uniform 1E-10;
    }

    airfoil
    {
		type        nutLowReWallFunction;
    	value 		uniform 0;
    	/*
        type            nutLowReWallFunction;
        Cmu             0.09;
        kappa           0.41;
        E               9.8;
        value           uniform 1E-10;
        */
    }

    frontAndBack
    {
        type            empty;
    }
}


// ************************************************************************* //
