/*--------------------------------*- C++ -*----------------------------------*\
| =========                 |                                                 |
| \\      /  F ield         | OpenFOAM: The Open Source CFD Toolbox           |
|  \\    /   O peration     | Version:  2112                                  |
|   \\  /    A nd           | Website:  www.openfoam.com                      |
|    \\/     M anipulation  |                                                 |
\*---------------------------------------------------------------------------*/
FoamFile
{
    version     2.0;
    format      ascii;
    arch        "LSB;label=32;scalar=64";
    class       volScalarField;
    location    "602";
    object      k;
}
// * * * * * * * * * * * * * * * * * * * * * * * * * * * * * * * * * * * * * //

dimensions      [0 2 -2 0 0 0 0];

internalField   nonuniform List<scalar> 
14336
(
0.000707928
0.000732847
0.000754681
0.000773609
0.000789902
0.000803904
0.000816029
0.000826739
0.000836649
0.000846359
0.000856417
0.000867159
0.000878619
0.000891206
0.000902031
0.000911061
0.000918261
0.000924009
0.000929059
0.000934012
0.000938959
0.000943223
0.000945884
0.000947673
0.000951633
0.000960904
0.000977883
0.00100415
0.00104284
0.00110633
0.00122509
0.00146567
0.00198164
0.00314795
0.00590702
0.0126273
0.029366
0.0826968
0.370641
1.0587
1.90951
2.57079
3.17935
3.79957
4.50957
5.35687
5.84408
4.75675
0.00370288
0.00499522
0.00483974
0.00474533
0.0047777
0.00483908
0.00491233
0.00500366
0.00510766
0.00521784
0.00532887
0.00543046
0.00551253
0.00558974
0.00566293
0.00573337
0.00580386
0.00587818
0.00595804
0.00604428
0.00613938
0.00624522
0.00636428
0.00649862
0.00664888
0.00681371
0.00699012
0.00717277
0.00734719
0.00753973
0.00770164
0.00783195
0.00791478
0.00792825
0.00784525
0.00764206
0.0073081
0.00686136
0.0063331
0.00565147
0.00456647
0.00340689
0.00280441
0.00191877
0.00083888
4.71024e-05
0.000579244
0.00456403
0.0160912
0.041899
0.0918952
0.178183
0.31223
0.500663
0.741926
1.02687
1.34393
1.68608
2.05753
2.48409
3.00013
3.71949
4.51817
5.6775
5.32598
4.65272
4.2332
3.88696
3.5662
3.24744
2.92702
2.60631
2.2886
1.95553
1.58316
1.23413
0.935545
0.700886
0.517256
0.385944
0.297105
0.231357
0.176598
0.139756
0.114435
0.0948061
0.0793968
0.0676618
0.0570066
0.0485832
0.0417966
0.0359241
0.031058
0.0268305
0.0230929
0.0200024
0.0173364
0.0150507
0.0130904
0.0113838
0.00993347
0.00868477
0.00759935
0.00665805
0.00583613
0.00511109
0.0044639
0.00387875
0.00334253
0.00283926
0.00236763
0.00193141
0.00152989
0.00116801
0.00085246
0.000590866
0.000384144
0.000232636
0.000121943
5.11732e-05
1.79586e-05
4.63233e-06
7.6117e-07
1.80745e-06
2.91593e-06
5.21701e-05
0.0005165
0.00202063
4.39711
5.81505
5.35274
4.51543
3.81482
3.1977
2.59064
1.92841
1.074
0.379427
0.0840775
0.0294432
0.0126401
0.00591109
0.00314938
0.00198215
0.00146587
0.00122518
0.00110638
0.00104287
0.00100417
0.000977892
0.000960909
0.000951635
0.000947675
0.000945886
0.000943224
0.00093896
0.000934013
0.000929061
0.000924015
0.000918262
0.000911062
0.000902031
0.000891205
0.000878611
0.000867149
0.000856406
0.000846347
0.000836636
0.000826725
0.000816015
0.000803889
0.000789886
0.000773593
0.000754664
0.000732829
0.000707909
0.000707954
0.000732872
0.000754705
0.000773631
0.000789923
0.000803925
0.000816049
0.000826758
0.000836667
0.000846376
0.000856433
0.000867173
0.000878631
0.000891208
0.00090203
0.00091106
0.000918259
0.000924002
0.000929057
0.00093401
0.000938958
0.000943221
0.000945882
0.00094767
0.000951629
0.000960898
0.000977872
0.00100413
0.00104281
0.00110628
0.001225
0.00146546
0.00198113
0.00314659
0.00590327
0.0126156
0.029287
0.0809983
0.358365
1.03676
1.88182
2.54123
3.15188
3.77705
4.50192
5.3628
5.87708
5.12078
0.00543474
0.00257956
0.00249073
0.00240395
0.00238247
0.00239143
0.00240264
0.00242827
0.00246273
0.00250003
0.00253498
0.00255931
0.00256301
0.00255804
0.00254637
0.00253086
0.00252236
0.00253423
0.00255878
0.00258843
0.00262335
0.00266399
0.00271097
0.00276462
0.00282468
0.00288992
0.00295829
0.00302645
0.00308246
0.00315208
0.00319631
0.00322316
0.00323647
0.00321223
0.00311531
0.00292309
0.00263265
0.00226404
0.00185677
0.00141783
0.000877833
0.000430658
0.000347475
0.000235405
0.000101768
5.67741e-06
6.88924e-05
0.000533291
0.0018505
0.00474679
0.0102816
0.0198029
0.03487
0.0567616
0.0861565
0.125184
0.178752
0.259052
0.402537
0.746972
1.2312
2.70773
4.80243
6.50363
6.18648
6.09184
6.26451
6.74234
6.84361
6.47035
6.03547
5.64317
5.30101
4.85434
4.06386
3.24571
2.50487
1.9012
1.35562
0.946674
0.691258
0.515488
0.364329
0.268269
0.205507
0.155745
0.119076
0.0940096
0.0720773
0.0560552
0.0442607
0.0349743
0.0280684
0.0225711
0.0180229
0.0146421
0.012041
0.00996395
0.00826655
0.0068783
0.00577968
0.00489023
0.00415708
0.00355279
0.00304922
0.00262427
0.00226093
0.00194592
0.00166864
0.00140683
0.00116526
0.000955857
0.00077585
0.000618286
0.00048068
0.000364397
0.000264046
0.000184342
0.000120145
7.23041e-05
4.54175e-05
3.01312e-05
2.13622e-05
1.62651e-05
8.45749e-06
2.91646e-05
0.000241236
0.00278332
3.91982
5.77296
5.34819
4.52197
3.82914
3.21438
2.60851
1.94556
1.0881
0.387581
0.0855005
0.0295421
0.0126584
0.00591687
0.00315134
0.00198284
0.00146613
0.00122529
0.00110643
0.00104289
0.00100418
0.000977902
0.000960914
0.000951638
0.000947678
0.000945889
0.000943226
0.000938961
0.000934014
0.000929064
0.000924022
0.000918263
0.000911063
0.000902032
0.000891204
0.000878604
0.000867141
0.000856396
0.000846336
0.000836625
0.000826713
0.000816003
0.000803876
0.000789873
0.000773578
0.000754649
0.000732814
0.000707893
0.000707994
0.000732909
0.000754741
0.000773666
0.000789956
0.000803956
0.00081608
0.000826787
0.000836695
0.000846402
0.000856457
0.000867195
0.000878649
0.000891211
0.000902028
0.000911057
0.000918253
0.000923996
0.000929054
0.000934009
0.000938957
0.000943219
0.000945881
0.000947668
0.000951625
0.000960888
0.000977855
0.0010041
0.00104277
0.00110621
0.00122486
0.00146517
0.00198039
0.0031446
0.00589777
0.0125989
0.0291836
0.078791
0.340049
1.00242
1.83754
2.49335
3.10664
3.73987
4.48848
5.36991
5.92232
5.51088
0.0659329
0.0272609
0.0253155
0.0235266
0.0225339
0.021981
0.0215195
0.0212718
0.0211661
0.0211351
0.0211247
0.0210589
0.020844
0.0206056
0.0203653
0.020142
0.0199913
0.0199822
0.0200725
0.0202203
0.0204261
0.0206914
0.0210189
0.0214098
0.0218602
0.0223595
0.0228902
0.0234243
0.0238525
0.0244231
0.0247754
0.0249686
0.0249811
0.0246271
0.0236486
0.0218597
0.019212
0.0158659
0.0121756
0.00828644
0.00363916
0.00015522
7.84363e-05
5.20814e-05
2.23254e-05
1.68483e-06
1.52595e-05
0.000111656
0.000386466
0.0010329
0.0024667
0.00582166
0.0147546
0.0312934
0.0521707
0.0924391
0.184901
0.393213
0.883266
2.19135
5.58559
12.553
18.3993
20.1702
24.296
29.9687
37.1836
44.7736
50.9835
54.6817
56.1147
56.1576
55.3128
52.5869
45.95
38.0445
30.0758
23.0545
16.5354
11.5293
8.32446
6.11372
4.24818
3.06573
2.29928
1.70408
1.27424
0.985499
0.739637
0.563453
0.436334
0.338468
0.267329
0.211985
0.167103
0.13437
0.109372
0.0893173
0.0730612
0.0599786
0.0498071
0.0417077
0.0351332
0.0297959
0.0254129
0.0217671
0.0186945
0.0160686
0.0137893
0.0116321
0.00964735
0.00794412
0.006489
0.00523155
0.00414686
0.00323223
0.00241902
0.00175386
0.00119784
0.00076207
0.000506431
0.000352454
0.000258588
0.000199553
0.000103514
0.000303656
0.00247829
0.0318045
3.34009
5.70279
5.33925
4.52815
3.84323
3.23066
2.62593
1.9624
1.10219
0.395793
0.0870482
0.0296642
0.0126814
0.00592405
0.00315374
0.00198366
0.00146643
0.00122541
0.00110648
0.00104292
0.0010042
0.000977911
0.000960919
0.000951641
0.000947682
0.000945891
0.000943227
0.000938961
0.000934016
0.000929067
0.000924029
0.000918264
0.000911064
0.000902033
0.000891203
0.000878597
0.000867132
0.000856387
0.000846326
0.000836614
0.000826702
0.000815991
0.000803863
0.00078986
0.000773565
0.000754635
0.000732798
0.000707877
0.00070805
0.000732963
0.000754792
0.000773715
0.000790003
0.000804001
0.000816123
0.000826829
0.000836734
0.000846438
0.00085649
0.000867225
0.000878674
0.000891214
0.000902026
0.000911054
0.000918242
0.000923991
0.000929052
0.000934008
0.000938956
0.000943218
0.00094588
0.000947666
0.000951618
0.000960876
0.000977832
0.00100407
0.00104271
0.00110612
0.00122469
0.00146478
0.00197941
0.00314192
0.00589038
0.0125769
0.0290607
0.0762963
0.315298
0.952732
1.77193
2.42178
3.03834
3.68448
4.46813
5.37833
5.97905
5.86152
0.493591
0.212605
0.191174
0.172534
0.16079
0.152947
0.146371
0.141803
0.138653
0.136405
0.134659
0.132903
0.130516
0.128262
0.126211
0.124435
0.123151
0.122625
0.122698
0.1232
0.124134
0.1255
0.127312
0.129574
0.132263
0.135319
0.138643
0.142073
0.144956
0.148815
0.151465
0.153205
0.153707
0.151917
0.14639
0.135992
0.120316
0.100201
0.0776662
0.0534304
0.0234506
0.000433214
4.11349e-05
2.58383e-05
1.24914e-05
4.1394e-06
1.32161e-05
6.60888e-05
0.000226732
0.000694348
0.00178227
0.00423007
0.0107057
0.0238913
0.0483609
0.103616
0.219293
0.406683
0.60749
0.784597
0.956755
1.1246
1.19786
1.18328
3.07936
5.74382
9.89427
15.7216
23.1519
32.2383
42.7898
54.044
64.4966
72.0544
75.1212
72.3889
65.5761
56.8763
47.8233
39.5035
32.4288
26.219
19.9642
15.3542
12.0129
9.23966
7.10666
5.60056
4.27705
3.29848
2.57672
2.01307
1.59865
1.27365
1.00825
0.813299
0.663076
0.541384
0.442581
0.363166
0.301493
0.25246
0.212725
0.180523
0.154126
0.132208
0.113767
0.0980312
0.0843866
0.0714504
0.0595193
0.0492234
0.0403481
0.0326564
0.0260225
0.0204241
0.015422
0.0113051
0.00782579
0.00505905
0.00342464
0.00243365
0.00182743
0.00144639
0.000771421
0.00232537
0.0195164
0.239161
2.72423
5.58834
5.32357
4.53385
3.85714
3.24657
2.64291
1.97899
1.11644
0.40421
0.0887828
0.0298196
0.0127113
0.00593322
0.00315674
0.00198468
0.0014668
0.00122556
0.00110655
0.00104296
0.00100422
0.000977921
0.000960924
0.000951644
0.000947685
0.000945892
0.000943227
0.000938961
0.000934017
0.000929071
0.000924034
0.000918265
0.000911065
0.000902033
0.000891202
0.00087859
0.000867124
0.000856378
0.000846316
0.000836603
0.00082669
0.000815979
0.000803851
0.000789847
0.000773551
0.000754621
0.000732784
0.000707862
0.000708128
0.000733037
0.000754863
0.000773783
0.000790068
0.000804063
0.000816182
0.000826886
0.000836788
0.000846489
0.000856537
0.000867267
0.000878708
0.000891219
0.000902023
0.00091105
0.000918228
0.000923988
0.00092905
0.000934007
0.000938955
0.000943217
0.000945879
0.000947663
0.000951609
0.000960859
0.000977803
0.00100402
0.00104264
0.001106
0.00122448
0.0014643
0.00197818
0.00313849
0.00588079
0.0125486
0.0289209
0.0737777
0.284777
0.885016
1.67985
2.32073
2.94143
3.60787
4.43996
5.38772
6.0456
6.17928
2.0673
1.0655
0.950227
0.849253
0.780927
0.732101
0.690682
0.659984
0.637129
0.619644
0.605611
0.592708
0.578148
0.565098
0.553659
0.543986
0.536662
0.532398
0.530746
0.53121
0.533772
0.538399
0.545121
0.553933
0.564734
0.577279
0.59117
0.605774
0.618429
0.635465
0.647936
0.656955
0.66071
0.655071
0.634385
0.593805
0.53098
0.448431
0.3536
0.248475
0.111976
0.00197241
0.000101483
6.29964e-05
3.64165e-05
2.09555e-05
5.34216e-05
0.000205352
0.000563508
0.00117008
0.002114
0.00354008
0.00655087
0.0102196
0.0138037
0.0178668
0.0228339
0.0279418
0.0312356
0.0320721
0.0309357
0.0287438
0.025747
0.0243629
0.316076
0.904236
1.85885
3.31699
5.56124
9.32663
15.1206
23.6028
35.2969
49.6532
63.7453
73.1933
76.1547
73.6255
67.2793
59.0988
50.7676
42.3763
34.8043
28.6988
23.8898
20.0344
16.7598
14.2093
11.6991
9.64413
7.98144
6.56716
5.4481
4.51016
3.69546
3.06522
2.55684
2.12879
1.77058
1.47492
1.24016
1.05003
0.893507
0.764966
0.658409
0.569093
0.493333
0.428217
0.371375
0.316955
0.266269
0.222069
0.18349
0.149751
0.120434
0.0954974
0.0729495
0.0541744
0.0380567
0.0250091
0.0172385
0.0124975
0.00959336
0.00777757
0.00425769
0.0131064
0.109404
1.09894
2.1437
5.40741
5.29696
4.53867
3.87092
3.26217
2.65952
1.99546
1.13109
0.413052
0.0907959
0.0300225
0.0127506
0.00594511
0.00316057
0.00198595
0.00146725
0.00122573
0.00110662
0.00104299
0.00100424
0.000977932
0.000960929
0.000951647
0.000947688
0.000945893
0.000943228
0.000938962
0.000934017
0.000929074
0.000924036
0.000918266
0.000911066
0.000902034
0.000891201
0.000878584
0.000867116
0.000856369
0.000846306
0.000836592
0.000826679
0.000815967
0.000803839
0.000789834
0.000773538
0.000754607
0.000732769
0.000707847
0.000708232
0.000733136
0.000754957
0.000773873
0.000790155
0.000804146
0.000816262
0.000826962
0.000836861
0.000846556
0.0008566
0.000867323
0.000878754
0.000891226
0.000902019
0.000911045
0.000918216
0.000923984
0.000929048
0.000934006
0.000938954
0.000943217
0.000945878
0.000947659
0.000951597
0.000960838
0.000977768
0.00100397
0.00104257
0.00110588
0.00122424
0.00146374
0.00197669
0.00313422
0.0058685
0.0125124
0.0287629
0.071447
0.250886
0.798117
1.5568
2.18512
2.81116
3.50886
4.40342
5.39689
6.11907
6.46868
4.10133
2.68281
2.49537
2.32238
2.1929
2.09309
2.00037
1.92746
1.87021
1.82437
1.7862
1.75065
1.71073
1.67479
1.64312
1.61617
1.59504
1.58099
1.57346
1.57169
1.57558
1.58499
1.59988
1.62013
1.64537
1.67487
1.70755
1.74178
1.77077
1.81069
1.83905
1.85862
1.86414
1.84611
1.79163
1.68871
1.52985
1.31767
1.06668
0.778021
0.374131
0.00701844
0.000348355
0.000229029
0.000145602
9.24938e-05
0.000224154
0.000674975
0.001252
0.00185505
0.00238435
0.00278683
0.00324063
0.00352116
0.00362365
0.00363021
0.00358783
0.00355325
0.00349222
0.00339313
0.00326364
0.00311896
0.00298033
0.00294614
0.0328977
0.151272
0.378015
0.751387
1.32862
2.2589
3.78483
6.45996
11.6046
20.0866
32.8057
48.5768
63.1698
71.7703
72.9789
68.7645
61.9243
54.1304
46.381
39.5841
33.9012
29.1226
24.8365
21.3445
18.3174
15.8055
13.7124
11.8401
10.2806
8.88776
7.59574
6.53433
5.63016
4.87513
4.23551
3.67587
3.20758
2.80906
2.46538
2.17094
1.91726
1.69704
1.50421
1.33354
1.18041
1.02952
0.88485
0.754778
0.6376
0.532044
0.437641
0.354961
0.277523
0.210916
0.151724
0.102099
0.0719439
0.0532952
0.0418166
0.0346799
0.0194509
0.0590266
0.429418
2.71628
1.66089
5.13504
5.25216
4.54166
3.88465
3.27761
2.67589
2.01201
1.14652
0.42264
0.0932175
0.0302932
0.0128029
0.00596074
0.00316554
0.00198759
0.00146782
0.00122595
0.00110672
0.00104304
0.00100426
0.000977945
0.000960936
0.000951651
0.00094769
0.000945894
0.000943228
0.000938962
0.000934018
0.000929076
0.000924037
0.000918267
0.000911067
0.000902035
0.000891201
0.000878578
0.000867108
0.00085636
0.000846297
0.000836582
0.000826668
0.000815956
0.000803827
0.000789822
0.000773525
0.000754594
0.000732755
0.000707832
0.000708368
0.000733265
0.000755081
0.000773991
0.000790268
0.000804255
0.000816365
0.000827062
0.000836955
0.000846644
0.000856681
0.000867396
0.000878815
0.000891235
0.000902014
0.000911038
0.000918206
0.000923981
0.000929046
0.000934005
0.000938954
0.000943216
0.000945877
0.000947654
0.000951582
0.000960813
0.000977728
0.00100391
0.00104248
0.00110575
0.00122397
0.00146308
0.00197488
0.00312889
0.00585271
0.0124653
0.0285804
0.0693972
0.217757
0.69443
1.40115
2.01281
2.64534
3.38959
4.35813
5.40305
6.19352
6.70708
5.59962
4.32163
4.15612
3.98215
3.84683
3.73964
3.6301
3.54157
3.47048
3.41243
3.36315
3.31587
3.25935
3.20762
3.16125
3.12113
3.08896
3.06652
3.05376
3.05012
3.05551
3.06968
3.09255
3.1238
3.16269
3.20793
3.25759
3.30897
3.35051
3.40935
3.44801
3.47087
3.46839
3.42574
3.32333
3.14277
2.87122
2.50923
2.07475
1.56602
0.808983
0.0166502
0.000840656
0.000598246
0.000463595
0.000336511
0.000709559
0.00140482
0.00194854
0.00230779
0.00251006
0.00261411
0.00269002
0.00275921
0.00281155
0.00283423
0.00282533
0.00278871
0.00273007
0.00265374
0.00256462
0.0024737
0.0024095
0.00241216
0.00471404
0.0275881
0.0820398
0.184827
0.3568
0.634111
1.07525
1.80317
3.15102
5.7033
10.9831
20.4655
34.5524
51.0144
64.0153
69.137
67.3927
61.8463
54.7238
47.6766
41.409
35.9711
31.2018
27.2545
23.8169
20.9226
18.4758
16.247
14.3538
12.7084
11.2448
9.98645
8.85497
7.87606
7.02218
6.25232
5.59031
5.01187
4.50002
4.05061
3.65413
3.30208
2.98703
2.70231
2.44155
2.19329
1.9571
1.73549
1.52616
1.32776
1.14015
0.96537
0.791404
0.632112
0.479382
0.340447
0.250415
0.192024
0.15502
0.131752
0.0763444
0.203095
1.04252
4.27916
1.31266
4.75338
5.177
4.5407
3.89832
3.29311
2.69226
2.02897
1.16325
0.433422
0.0962303
0.0306615
0.0128735
0.00598149
0.00317206
0.00198971
0.00146855
0.00122622
0.00110683
0.00104309
0.00100429
0.000977959
0.000960943
0.000951655
0.000947692
0.000945895
0.000943229
0.000938963
0.000934019
0.000929077
0.000924039
0.000918267
0.000911067
0.000902036
0.0008912
0.000878572
0.000867101
0.000856352
0.000846288
0.000836573
0.000826658
0.000815945
0.000803816
0.00078981
0.000773513
0.000754581
0.000732742
0.000707818
0.000708541
0.00073343
0.000755238
0.000774141
0.000790412
0.000804393
0.000816498
0.00082719
0.000837076
0.000846757
0.000856785
0.00086749
0.000878891
0.000891246
0.000902008
0.000911029
0.000918198
0.000923978
0.000929044
0.000934004
0.000938954
0.000943216
0.000945876
0.000947647
0.000951564
0.000960785
0.000977685
0.00100385
0.0010424
0.0011056
0.00122366
0.00146229
0.00197264
0.00312218
0.00583224
0.0124032
0.0283615
0.0676075
0.189694
0.582198
1.21774
1.80791
2.45019
3.25612
4.30307
5.40066
6.25671
6.86139
6.41325
5.44525
5.35587
5.22247
5.11673
5.03053
4.95243
4.89068
4.84259
4.805
4.77444
4.74386
4.69819
4.65658
4.61923
4.58664
4.56024
4.54185
4.53215
4.53154
4.54054
4.55913
4.58747
4.62516
4.67116
4.72363
4.77988
4.83612
4.87569
4.93438
4.96008
4.95733
4.91322
4.81131
4.63155
4.35613
3.97321
3.48508
2.91528
2.26591
1.26073
0.0292754
0.00149125
0.00114914
0.00102539
0.000950914
0.00155264
0.00211689
0.00242308
0.00259325
0.00270583
0.00277795
0.00280668
0.00279783
0.00275944
0.00270003
0.00262519
0.00253825
0.00244435
0.00234249
0.0022377
0.00215117
0.00210762
0.00211779
0.00229868
0.00633937
0.0195376
0.0484771
0.101951
0.193468
0.343859
0.589477
1.01093
1.76209
3.24897
6.26786
12.7968
24.0391
39.5492
54.8689
63.7145
64.6012
60.3451
54.0795
47.6479
41.7271
36.4544
32.0179
28.1492
24.8643
22.0907
19.6478
17.5684
15.7583
14.1465
12.7437
11.4693
10.3568
9.37865
8.5018
7.72924
7.04158
6.42354
5.87342
5.38149
4.93883
4.5375
4.17009
3.82927
3.50329
3.19002
2.89002
2.60007
2.31826
2.0441
1.78005
1.52651
1.28784
1.04031
0.803144
0.634385
0.514874
0.433367
0.378959
0.236876
0.475461
1.79071
5.51101
1.11484
4.26847
5.05284
4.53146
3.91156
3.30898
2.709
2.04682
1.18201
0.446014
0.100091
0.0311715
0.0129698
0.00600925
0.0031807
0.00199249
0.0014695
0.00122657
0.00110697
0.00104315
0.00100432
0.000977976
0.000960951
0.00095166
0.000947694
0.000945896
0.000943229
0.000938963
0.00093402
0.000929079
0.00092404
0.000918268
0.000911068
0.000902036
0.000891199
0.000878566
0.000867094
0.000856344
0.000846279
0.000836563
0.000826648
0.000815935
0.000803806
0.000789799
0.000773502
0.000754569
0.00073273
0.000707805
0.000708755
0.000733634
0.000755433
0.000774328
0.000790591
0.000804564
0.000816662
0.000827348
0.000837227
0.000846897
0.000856915
0.000867606
0.000878987
0.000891261
0.000902
0.000911017
0.00091819
0.000923974
0.000929042
0.000934003
0.000938953
0.000943215
0.000945875
0.000947638
0.000951544
0.000960755
0.00097764
0.00100379
0.00104231
0.00110545
0.00122329
0.00146132
0.00196984
0.00311362
0.0058055
0.0123206
0.0280886
0.0659884
0.168796
0.475399
1.02151
1.58356
2.24264
3.1167
4.23494
5.37946
6.28783
6.91181
6.75623
6.08072
6.07394
6.00154
5.94941
5.90682
5.86851
5.84136
5.82317
5.81169
5.80412
5.79367
5.76336
5.73562
5.71079
5.68956
5.67338
5.66407
5.66247
5.66916
5.6845
5.70819
5.7401
5.77951
5.82493
5.87392
5.923
5.9675
5.99127
6.02387
6.01584
5.96794
5.86438
5.68646
5.4114
5.01815
4.49001
3.82468
3.0509
2.22456
1.29803
0.0311478
0.0019698
0.00171623
0.00173452
0.00192976
0.00238743
0.00260939
0.0027197
0.00276141
0.002754
0.00271445
0.00265258
0.00257868
0.00249465
0.00240548
0.00231135
0.00221034
0.00210677
0.0019851
0.00186522
0.00177923
0.00173261
0.00172345
0.00176626
0.00237699
0.00554214
0.0133744
0.0296302
0.0614695
0.116416
0.207876
0.362553
0.630924
1.12482
2.06531
4.03884
8.11912
16.6412
29.9004
45.4765
57.113
60.6915
58.0823
52.7853
46.8862
41.2392
36.3005
31.9699
28.2649
25.1358
22.426
20.1259
18.1335
16.367
14.833
13.4653
12.265
11.2032
10.2486
9.40197
8.64454
7.96051
7.348
6.79694
6.29802
5.84291
5.42373
5.03294
4.65883
4.29749
3.94799
3.60619
3.26909
2.93518
2.60614
2.28148
1.9622
1.62929
1.33541
1.11526
0.948684
0.826769
0.739237
0.509238
0.819323
2.55133
6.50409
1.07964
3.72785
4.85681
4.50578
3.92322
3.32557
2.72663
2.06622
1.20376
0.461252
0.10516
0.0318899
0.0131023
0.00604664
0.00319222
0.00199617
0.00147074
0.00122702
0.00110715
0.00104324
0.00100436
0.000977997
0.000960961
0.000951665
0.000947696
0.000945897
0.00094323
0.000938964
0.000934021
0.000929081
0.000924042
0.000918269
0.000911069
0.000902037
0.000891199
0.000878561
0.000867087
0.000856337
0.000846271
0.000836555
0.000826639
0.000815926
0.000803796
0.000789789
0.000773491
0.000754557
0.000732718
0.000707792
0.000709014
0.000733881
0.000755669
0.000774554
0.000790807
0.000804772
0.000816861
0.00082754
0.000837408
0.000847067
0.000857072
0.000867747
0.000879103
0.000891277
0.000901991
0.000911003
0.000918182
0.000923969
0.000929039
0.000934002
0.000938953
0.000943215
0.000945872
0.000947628
0.000951523
0.000960724
0.000977595
0.00100373
0.00104223
0.00110527
0.00122284
0.00146008
0.00196625
0.00310256
0.00577044
0.0122104
0.0277384
0.0644173
0.15431
0.390073
0.836166
1.36529
2.04535
2.97704
4.14595
5.32257
6.2594
6.8585
6.8382
6.44176
6.49375
6.46079
6.44478
6.43073
6.41848
6.41344
6.41403
6.41878
6.42551
6.42943
6.4214
6.41469
6.4095
6.40641
6.40661
6.4114
6.42141
6.43709
6.45859
6.48541
6.51717
6.55293
6.59065
6.627
6.65723
6.67512
6.66752
6.64938
6.58315
6.46474
6.27707
6.0008
5.61187
5.08813
4.41187
3.58302
2.63923
1.67819
0.784562
0.0138256
0.00216787
0.00217494
0.00237988
0.00269352
0.0027155
0.00270929
0.00267282
0.00261419
0.00253911
0.00245722
0.00236722
0.00227817
0.00218194
0.00208308
0.00196767
0.00183066
0.00169499
0.00157828
0.00149435
0.00143916
0.00140691
0.00139538
0.00140522
0.00150856
0.00218222
0.00437858
0.00915645
0.0190414
0.038297
0.0747306
0.137057
0.242698
0.430192
0.775587
1.44894
2.76862
5.562
11.5165
22.2395
36.5391
49.583
55.8147
55.1836
50.9988
45.6632
40.4476
35.6968
31.5485
28.0156
24.9762
22.4012
20.189
18.2464
16.5648
15.0835
13.7868
12.6417
11.6149
10.7035
9.8891
9.1555
8.49699
7.90345
7.36532
6.87392
6.42094
5.99845
5.59467
5.20447
4.82563
4.45331
4.08331
3.71267
3.3414
2.96607
2.58443
2.18888
1.85989
1.60439
1.40159
1.24562
1.12841
0.834004
1.19408
3.24422
7.22876
1.23266
3.2286
4.5757
4.45037
3.93038
3.3431
2.74587
2.08807
1.22978
0.48026
0.111952
0.0329208
0.0132876
0.00609738
0.00320766
0.00200107
0.00147239
0.00122761
0.00110739
0.00104334
0.00100441
0.000978024
0.000960974
0.00095167
0.000947699
0.000945898
0.000943232
0.000938965
0.000934022
0.000929082
0.000924043
0.00091827
0.00091107
0.000902038
0.000891199
0.000878556
0.000867081
0.00085633
0.000846264
0.000836546
0.000826631
0.000815917
0.000803786
0.000789779
0.00077348
0.000754547
0.000732706
0.00070778
0.000709317
0.00073417
0.000755945
0.000774818
0.000791059
0.000805014
0.000817093
0.000827764
0.000837621
0.000847266
0.000857256
0.000867912
0.000879239
0.000891297
0.00090198
0.000910987
0.000918173
0.000923963
0.000929036
0.000934
0.000938952
0.000943214
0.000945869
0.000947616
0.000951501
0.000960693
0.000977551
0.00100367
0.00104213
0.00110504
0.00122226
0.0014585
0.0019616
0.00308815
0.00572444
0.0120643
0.027282
0.0627537
0.144106
0.332003
0.690437
1.18393
1.87394
2.83517
4.02219
5.20618
6.14317
6.70742
6.76282
6.61262
6.70634
6.70918
6.72344
6.73349
6.74297
6.75559
6.77054
6.78705
6.80339
6.81596
6.81981
6.82418
6.82911
6.83521
6.84345
6.85482
6.86967
6.88817
6.91005
6.93421
6.95952
6.9845
7.00637
7.0209
7.02205
7.00218
6.94984
6.87118
6.73333
6.52878
6.23729
5.83714
5.30147
4.60887
3.75184
2.76452
1.74993
0.877794
0.283383
0.00459681
0.0023316
0.00254799
0.00272652
0.00281427
0.00261901
0.00252788
0.00244509
0.00235852
0.0022644
0.00217299
0.00207162
0.00197093
0.00183592
0.00169072
0.00155696
0.00144188
0.00135077
0.00128634
0.00124153
0.00121112
0.00119236
0.0011839
0.00118556
0.00121232
0.00134424
0.00190439
0.00339297
0.00645271
0.0126388
0.0251942
0.0494437
0.095908
0.173968
0.311606
0.569172
1.05992
2.02382
3.98939
8.06007
16.3494
28.4989
41.5383
49.9636
51.5865
48.7389
44.2024
39.3914
34.9115
30.9796
27.5707
24.6702
22.1913
20.035
18.1747
16.5505
15.1359
13.8937
12.7862
11.8053
10.9318
10.1481
9.44559
8.81347
8.24148
7.72039
7.24141
6.79616
6.37281
5.96508
5.56951
5.18064
4.793
4.40191
4.00523
3.59652
3.17154
2.75098
2.39719
2.11164
1.8754
1.68682
1.54141
1.19637
1.57904
3.8349
7.52277
1.66208
2.92395
4.24265
4.35084
3.92744
3.36145
2.76767
2.11358
1.2617
0.504538
0.121205
0.0344305
0.0135514
0.00616685
0.0032285
0.00200762
0.00147457
0.0012284
0.00110769
0.00104348
0.00100448
0.000978058
0.00096099
0.000951678
0.000947701
0.000945899
0.000943234
0.000938967
0.000934023
0.000929084
0.000924045
0.000918271
0.000911071
0.000902039
0.000891198
0.000878551
0.000867075
0.000856323
0.000846257
0.000836539
0.000826622
0.000815908
0.000803777
0.00078977
0.000773471
0.000754537
0.000732696
0.000707769
0.000709655
0.000734493
0.000756254
0.000775113
0.000791343
0.000805286
0.000817354
0.000828016
0.00083786
0.00084749
0.000857463
0.000868098
0.000879392
0.000891319
0.000901967
0.000910968
0.000918162
0.000923956
0.000929032
0.000933998
0.00093895
0.000943212
0.000945865
0.000947604
0.00095148
0.000960663
0.00097751
0.00100361
0.001042
0.00110475
0.00122151
0.00145643
0.00195552
0.00306933
0.00566421
0.0118719
0.0266861
0.0608446
0.136096
0.295113
0.592245
1.04897
1.72703
2.67932
3.84403
5.00235
5.9132
6.45062
6.54576
6.61356
6.7445
6.79056
6.83636
6.87199
6.90282
6.93198
6.95975
6.98609
7.00982
7.02852
7.04016
7.05135
7.062
7.07277
7.08444
7.0977
7.11263
7.12909
7.14628
7.16236
7.17511
7.18245
7.18073
7.16468
7.12675
7.05764
6.94683
6.79284
6.56433
6.24986
5.82382
5.26124
4.53544
3.64038
2.62038
1.6081
0.790739
0.267615
0.0549614
0.00264401
0.0025505
0.00264264
0.00267212
0.00264767
0.00240381
0.00228877
0.0021939
0.0020976
0.00199148
0.00188396
0.00173515
0.00158199
0.00145016
0.00134339
0.00125883
0.00119542
0.00115091
0.00111894
0.00109594
0.00107991
0.00106959
0.00106427
0.00106374
0.001072
0.00110192
0.00122648
0.0016505
0.00267611
0.00468865
0.00877811
0.0172325
0.0346261
0.0686028
0.129567
0.235796
0.430746
0.802369
1.52349
2.92381
5.81911
11.7802
21.555
33.4749
43.2498
47.1641
46.0088
42.4352
38.1768
34.0525
30.3267
27.0908
24.312
21.9054
19.8327
18.0342
16.4753
15.1149
13.9111
12.8486
11.907
11.0664
10.3155
9.64248
9.03596
8.48598
7.98316
7.51864
7.0805
6.66127
6.25627
5.85936
5.46388
5.06337
4.65329
4.2245
3.77526
3.35171
2.97741
2.66401
2.39486
2.17358
2.00049
1.61266
1.96669
4.29072
7.46768
2.69093
3.09482
4.00997
4.21676
3.90853
3.38017
2.79344
2.1444
1.30159
0.536088
0.133997
0.0366914
0.0139365
0.00626317
0.00325683
0.00201644
0.00147748
0.00122943
0.00110809
0.00104365
0.00100457
0.000978102
0.00096101
0.000951686
0.000947705
0.000945902
0.000943236
0.000938969
0.000934024
0.000929086
0.000924046
0.000918272
0.000911072
0.00090204
0.000891198
0.000878547
0.00086707
0.000856317
0.00084625
0.000836532
0.000826615
0.000815901
0.000803769
0.000789761
0.000773462
0.000754528
0.000732686
0.000707759
0.000710016
0.000734837
0.000756583
0.000775428
0.000791645
0.000805576
0.000817632
0.000828285
0.000838116
0.000847729
0.000857684
0.000868296
0.000879555
0.000891342
0.000901954
0.000910948
0.000918149
0.000923948
0.000929027
0.000933995
0.000938948
0.000943209
0.00094586
0.000947591
0.000951462
0.000960635
0.000977468
0.00100354
0.00104184
0.00110437
0.00122053
0.00145373
0.00194758
0.00304475
0.00558567
0.011621
0.0259126
0.0585301
0.128661
0.26961
0.527307
0.946487
1.58832
2.4912
3.58967
4.68299
5.54128
6.05178
6.14817
6.41921
6.5993
6.70526
6.792
6.86098
6.91774
6.96654
7.00896
7.04598
7.07737
7.10217
7.12047
7.13675
7.15102
7.16392
7.17607
7.18782
7.19901
7.20909
7.21662
7.21886
7.21217
7.19375
7.15894
7.10125
7.01115
6.87731
6.68891
6.43609
6.08674
5.62426
5.01724
4.24453
3.30758
2.28126
1.32803
0.618637
0.196124
0.0442162
0.00778695
0.00249011
0.00251154
0.00251717
0.00249097
0.00242741
0.00217728
0.00204909
0.00194693
0.00182824
0.00167526
0.00151181
0.00137743
0.00127495
0.00119804
0.0011401
0.00109801
0.00106812
0.00104595
0.00102943
0.00101727
0.00100861
0.00100285
0.000999632
0.000998788
0.00100037
0.00100933
0.0010373
0.0011405
0.00145369
0.00217051
0.00355123
0.00635188
0.0124068
0.0251655
0.0509527
0.100011
0.183287
0.333879
0.617641
1.15506
2.18821
4.24097
8.25913
15.7596
25.8663
35.871
41.8102
42.6462
40.3261
36.8131
33.1109
29.6671
26.6187
23.9533
21.6462
19.6469
17.918
16.4166
15.0973
13.938
12.9155
12.0079
11.201
10.4812
9.83607
9.25463
8.72677
8.24304
7.79142
7.36323
6.9525
6.55242
6.15531
5.75315
5.33928
4.90241
4.44642
4.02162
3.62981
3.2906
2.98916
2.73521
2.53499
2.10962
2.36948
4.59584
7.38685
4.06328
4.2054
4.29014
4.17271
3.88917
3.40218
2.82622
2.18318
1.3522
0.577577
0.151912
0.0401618
0.0145181
0.00639924
0.00329572
0.00202838
0.00148139
0.00123081
0.00110863
0.00104388
0.00100468
0.000978159
0.000961037
0.000951698
0.000947709
0.000945905
0.000943239
0.000938971
0.000934026
0.000929088
0.000924047
0.000918273
0.000911074
0.000902041
0.000891198
0.000878544
0.000867065
0.000856312
0.000846244
0.000836526
0.000826608
0.000815894
0.000803762
0.000789754
0.000773454
0.000754519
0.000732678
0.00070775
0.000710377
0.000735182
0.000756913
0.000775744
0.000791948
0.000805867
0.000817912
0.000828555
0.000838372
0.000847971
0.000857907
0.000868496
0.00087972
0.000891365
0.000901939
0.000910927
0.000918136
0.000923939
0.000929021
0.000933992
0.000938945
0.000943205
0.000945855
0.000947578
0.000951445
0.000960607
0.000977418
0.00100344
0.00104162
0.00110386
0.00121925
0.00145019
0.00193721
0.00301277
0.00548389
0.0112971
0.0249187
0.0556522
0.12062
0.247693
0.476244
0.854283
1.43706
2.25285
3.24061
4.22339
4.99093
5.43226
5.51451