/*--------------------------------*- C++ -*----------------------------------*\
| =========                 |                                                 |
| \\      /  F ield         | OpenFOAM: The Open Source CFD Toolbox           |
|  \\    /   O peration     | Version:  2112                                  |
|   \\  /    A nd           | Website:  www.openfoam.com                      |
|    \\/     M anipulation  |                                                 |
\*---------------------------------------------------------------------------*/
FoamFile
{
    version     2.0;
    format      ascii;
    arch        "LSB;label=32;scalar=64";
    class       volScalarField;
    location    "602";
    object      nut;
}
// * * * * * * * * * * * * * * * * * * * * * * * * * * * * * * * * * * * * * //

dimensions      [0 2 -1 0 0 0 0];

internalField   nonuniform List<scalar> 
14336
(
0.00316946
0.00317886
0.00318684
0.00319363
0.00319949
0.00320475
0.00320983
0.00322393
0.00323394
0.00324094
0.00324874
0.0032549
0.00325488
0.00324048
0.00319336
0.00310586
0.0017227
0.000248553
0.000414448
0.00038458
0.000212063
0.000143352
0.000177433
0.00042984
0.000793584
0.000588304
0.000429385
0.000310613
0.000224497
0.000164451
0.000124512
9.95967e-05
8.58594e-05
7.96493e-05
7.20957e-05
6.07735e-05
5.32958e-05
6.76847e-05
0.000177128
0.000354624
0.000506858
0.000543513
0.000524566
0.000470815
0.000404079
0.000320319
0.000132823
6.5059e-06
2.1893e-11
2.88235e-11
2.727e-11
2.61907e-11
2.58999e-11
2.58273e-11
2.58671e-11
2.60426e-11
2.63175e-11
2.66529e-11
2.70174e-11
2.73562e-11
2.76173e-11
2.78727e-11
2.81247e-11
2.83782e-11
2.8645e-11
2.89429e-11
2.92789e-11
2.96559e-11
3.00853e-11
3.05761e-11
3.114e-11
3.17868e-11
3.252e-11
3.33336e-11
3.42138e-11
3.51359e-11
3.60302e-11
3.70277e-11
3.78913e-11
3.8618e-11
3.91308e-11
3.93225e-11
3.90579e-11
3.82154e-11
3.67356e-11
3.46999e-11
3.22555e-11
2.90211e-11
2.36739e-11
1.78584e-11
1.48891e-11
1.03384e-11
4.59742e-12
2.63247e-13
3.31103e-12
2.6772e-11
9.72291e-11
2.61905e-10
5.97111e-10
1.21006e-09
2.22955e-09
3.78437e-09
5.97995e-09
8.89616e-09
1.26224e-08
1.7326e-08
2.33578e-08
3.1473e-08
4.28737e-08
6.06077e-08
8.48801e-08
1.23655e-07
1.16011e-07
8.74046e-08
6.89701e-08
5.5537e-08
4.51742e-08
3.68589e-08
3.00723e-08
2.44747e-08
1.9824e-08
1.57595e-08
1.19652e-08
8.81179e-09
6.35291e-09
4.55391e-09
3.23317e-09
2.33194e-09
1.74274e-09
1.32244e-09
9.86962e-10
7.65911e-10
6.16571e-10
5.03339e-10
4.16183e-10
3.50777e-10
2.92736e-10
2.47441e-10
2.11377e-10
1.80579e-10
1.5531e-10
1.33576e-10
1.14536e-10
9.88922e-11
8.54828e-11
7.40482e-11
6.42873e-11
5.58256e-11
4.86593e-11
4.25085e-11
3.7177e-11
3.25648e-11
2.85463e-11
2.50081e-11
2.18549e-11
1.90074e-11
1.63999e-11
1.39526e-11
1.16577e-11
9.53254e-12
7.57245e-12
5.80094e-12
4.25073e-12
2.96018e-12
1.93514e-12
1.17947e-12
6.22887e-13
2.63673e-13
9.34694e-14
2.43927e-14
4.06254e-15
9.79816e-15
1.60937e-14
2.93958e-13
2.98031e-12
1.19469e-11
4.89982e-06
0.000126016
0.00031639
0.000401975
0.000471
0.000526354
0.000546635
0.000510863
0.000358714
0.00018026
6.72881e-05
5.03876e-05
5.72833e-05
6.95748e-05
7.83812e-05
8.52475e-05
9.93185e-05
0.000124354
0.000164309
0.000224352
0.000310468
0.000429229
0.000588099
0.000793358
0.000346508
0.000164866
0.000174332
0.000318952
0.000427191
0.000414213
0.000238402
0.00297243
0.00310586
0.00319339
0.00324053
0.00325487
0.00325487
0.0032487
0.00324089
0.00323389
0.00322385
0.00320969
0.00320461
0.00319933
0.00319346
0.00318666
0.00317867
0.00316924
0.00316977
0.00317915
0.0031871
0.00319386
0.00319971
0.00320496
0.00321002
0.00322404
0.00323401
0.00324101
0.00324879
0.00325494
0.0032549
0.00324044
0.00319332
0.00310587
0.000867464
0.00031882
0.000473477
0.000414491
0.000205619
0.000170104
0.000241366
0.000651253
0.000793869
0.000588561
0.000429595
0.000310804
0.00022469
0.000164636
0.000124716
9.99494e-05
8.66334e-05
8.12735e-05
7.54263e-05
6.56054e-05
5.75889e-05
6.86015e-05
0.000172817
0.000348739
0.000500895
0.000538714
0.000521682
0.000470339
0.000406968
0.000324865
0.00013976
1.09671e-05
2.55892e-10
1.18666e-10
1.10729e-10
1.03648e-10
9.9953e-11
9.79257e-11
9.62954e-11
9.54914e-11
9.52284e-11
9.52255e-11
9.52486e-11
9.49501e-11
9.39381e-11
9.2596e-11
9.0975e-11
8.92023e-11
8.78832e-11
8.7737e-11
8.82816e-11
8.90665e-11
9.00804e-11
9.13348e-11
9.28485e-11
9.46331e-11
9.66798e-11
9.89496e-11
1.01377e-10
1.03852e-10
1.05972e-10
1.08629e-10
1.10493e-10
1.11968e-10
1.13542e-10
1.14187e-10
1.12241e-10
1.06645e-10
9.72315e-11
8.46614e-11
7.03594e-11
5.45118e-11
3.46002e-11
1.72943e-11
1.425e-11
9.88978e-12
4.39532e-12
2.53077e-13
3.18343e-12
2.56679e-11
9.32493e-11
2.51775e-10
5.77116e-10
1.18251e-09
2.22615e-09
3.89203e-09
6.37004e-09
1.00283e-08
1.5591e-08
2.47161e-08
4.22009e-08
8.63588e-08
1.44116e-07
3.27749e-07
6.02071e-07
8.43146e-07
8.00746e-07
7.37058e-07
7.17582e-07
7.33109e-07
6.88907e-07
5.89977e-07
5.01006e-07
4.29117e-07
3.71884e-07
3.16536e-07
2.4809e-07
1.86786e-07
1.36879e-07
9.93213e-08
6.80059e-08
4.5723e-08
3.22128e-08
2.32338e-08
1.59232e-08
1.14004e-08
8.51543e-09
6.30923e-09
4.72782e-09
3.66662e-09
2.7669e-09
2.12134e-09
1.65322e-09
1.29047e-09
1.02323e-09
8.1262e-10
6.40289e-10
5.13412e-10
4.18108e-10
3.44326e-10
2.84814e-10
2.36425e-10
1.98303e-10
1.67568e-10
1.42331e-10
1.216e-10
1.04378e-10
8.9884e-11
7.75218e-11
6.68255e-11
5.74241e-11
4.85446e-11
4.0349e-11
3.33103e-11
2.73504e-11
2.20938e-11
1.7403e-11
1.33583e-11
9.79798e-12
6.92779e-12
4.57724e-12
2.79641e-12
1.78641e-12
1.20788e-12
8.74939e-13
6.82528e-13
3.64732e-13
1.29686e-12
1.10999e-11
1.31078e-10
4.29179e-06
0.000115492
0.000311238
0.0004
0.000471157
0.000527894
0.000549405
0.000514518
0.000362609
0.000183428
6.77192e-05
4.88327e-05
5.49512e-05
6.77438e-05
7.74308e-05
8.4786e-05
9.91081e-05
0.000124234
0.000164201
0.000224238
0.000310351
0.000429103
0.000587922
0.000793163
0.00034712
0.00020037
0.000319951
0.000700262
0.000580851
0.000450674
0.000287714
0.0029724
0.00310586
0.00319343
0.00324057
0.00325486
0.00325484
0.00324866
0.00324085
0.00323384
0.00322378
0.00320957
0.00320448
0.0031992
0.00319332
0.00318651
0.0031785
0.00316906
0.00317025
0.00317958
0.00318749
0.00319423
0.00320005
0.00320528
0.00321033
0.00322422
0.00323412
0.00324111
0.00324888
0.00325501
0.00325493
0.00324038
0.00319327
0.00310588
0.000540968
0.000485847
0.00062762
0.000523172
0.000274643
0.000266688
0.000396272
0.0010482
0.000794266
0.000588916
0.000429917
0.000311098
0.000224982
0.000164909
0.000125006
0.000100435
8.76856e-05
8.3517e-05
8.02292e-05
7.30191e-05
6.46953e-05
7.08754e-05
0.000166795
0.00033981
0.000491601
0.00053121
0.000517257
0.000469994
0.000412104
0.000332366
0.000153291
2.27844e-05
1.46985e-08
5.74712e-09
5.05429e-09
4.47519e-09
4.10792e-09
3.86118e-09
3.65908e-09
3.51407e-09
3.40731e-09
3.32344e-09
3.25115e-09
3.17709e-09
3.08691e-09
2.99919e-09
2.91731e-09
2.84381e-09
2.78883e-09
2.76522e-09
2.76229e-09
2.7703e-09
2.78876e-09
2.81762e-09
2.85711e-09
2.90733e-09
2.96778e-09
3.03714e-09
3.11328e-09
3.19266e-09
3.26072e-09
3.35176e-09
3.41695e-09
3.46696e-09
3.5055e-09
3.50346e-09
3.41693e-09
3.21233e-09
2.87543e-09
2.42177e-09
1.89833e-09
1.32222e-09
5.98756e-10
2.71941e-11
1.42163e-11
9.81195e-12
4.39556e-12
3.48598e-13
3.33542e-12
2.58855e-11
9.51349e-11
2.69026e-10
6.73335e-10
1.64165e-09
4.09555e-09
7.52232e-09
1.13972e-08
1.92046e-08
3.81035e-08
8.4033e-08
2.04783e-07
5.74562e-07
1.72345e-06
4.69423e-06
7.83802e-06
9.08517e-06
1.02117e-05
1.00275e-05
1.03212e-05
1.07225e-05
1.08657e-05
1.0616e-05
1.01208e-05
9.59431e-06
9.14038e-06
8.54564e-06
7.33091e-06
6.11182e-06
4.98901e-06
4.03858e-06
2.98376e-06
2.07118e-06
1.4846e-06
1.07969e-06
7.39367e-07
5.24181e-07
3.85528e-07
2.79838e-07
2.05019e-07
1.55454e-07
1.14494e-07
8.5658e-08
6.51953e-08
4.97518e-08
3.86891e-08
3.02395e-08
2.35255e-08
1.8699e-08
1.50876e-08
1.2256e-08
9.98807e-09
8.17606e-09
6.7752e-09
5.66561e-09
4.76929e-09
4.04482e-09
3.45226e-09
2.9612e-09
2.54872e-09
2.1972e-09
1.89273e-09
1.60424e-09
1.33836e-09
1.11133e-09
9.19001e-10
7.51937e-10
6.05735e-10
4.80464e-10
3.6635e-10
2.70991e-10
1.89124e-10
1.23193e-10
8.40263e-11
6.02036e-11
4.56441e-11
3.65683e-11
1.98009e-11
6.09914e-11
5.25642e-10
7.13998e-09
4.1329e-06
0.000104246
0.000304255
0.000397626
0.000471111
0.000529253
0.000552016
0.00051806
0.000366505
0.000186644
6.83641e-05
4.76594e-05
5.29507e-05
6.60754e-05
7.65412e-05
8.43509e-05
9.89089e-05
0.00012412
0.000164098
0.00022413
0.000310237
0.000428979
0.000587768
0.000792984
0.000448119
0.000342782
0.000832387
0.00186299
0.00100435
0.000532167
0.000466223
0.00297235
0.00310587
0.00319349
0.00324063
0.00325485
0.00325481
0.00324863
0.00324081
0.0032338
0.00322371
0.00320946
0.00320436
0.00319908
0.00319318
0.00318636
0.00317834
0.00316888
0.00317094
0.0031802
0.00318806
0.00319475
0.00320054
0.00320574
0.00321076
0.00322446
0.00323428
0.00324125
0.00324901
0.0032551
0.00325497
0.00324031
0.00319322
0.00310591
0.000477913
0.000792804
0.000917361
0.000724449
0.000441365
0.000464704
0.000690286
0.00104863
0.000794714
0.000589332
0.000430325
0.00031148
0.000225347
0.000165236
0.000125337
0.000100961
8.87971e-05
8.59299e-05
8.56713e-05
8.20652e-05
7.43165e-05
7.51777e-05
0.000159235
0.000327168
0.000478062
0.000520274
0.000510897
0.000469897
0.000419755
0.0003432
0.00017322
4.23415e-05
3.71183e-07
1.47299e-07
1.23824e-07
1.05053e-07
9.25702e-08
8.37669e-08
7.66847e-08
7.14089e-08
6.73978e-08
6.42408e-08
6.16451e-08
5.93099e-08
5.69274e-08
5.48025e-08
5.29422e-08
5.13523e-08
5.01296e-08
4.94025e-08
4.90398e-08
4.8922e-08
4.90368e-08
4.93771e-08
4.99431e-08
5.07336e-08
5.174e-08
5.29412e-08
5.43038e-08
5.5773e-08
5.71031e-08
5.88991e-08
6.03229e-08
6.15259e-08
6.24586e-08
6.26652e-08
6.14657e-08
5.82788e-08
5.27839e-08
4.51435e-08
3.60571e-08
2.56753e-08
1.17798e-08
2.32933e-10
2.32597e-11
1.54996e-11
8.02091e-12
2.86103e-12
9.80166e-12
5.15735e-11
1.78878e-10
5.2705e-10
1.08167e-09
2.14443e-09
4.89589e-09
1.06575e-08
2.27085e-08
5.40581e-08
1.31845e-07
2.89987e-07
5.06858e-07
7.88249e-07
1.22973e-06
1.82456e-06
2.30697e-06
2.64499e-06
5.58069e-06
8.43129e-06
1.1724e-05
1.32441e-05
1.42289e-05
1.54905e-05
1.69364e-05
1.84296e-05
1.97133e-05
2.04881e-05
2.04929e-05
1.93924e-05
1.75845e-05
1.55775e-05
1.36019e-05
1.18609e-05
1.04695e-05
9.29676e-06
7.35039e-06
5.89288e-06
4.81874e-06
3.71448e-06
2.8489e-06
2.2391e-06
1.70033e-06
1.30321e-06
1.012e-06
7.86731e-07
6.22063e-07
4.9378e-07
3.89687e-07
3.13543e-07
2.55376e-07
2.08624e-07
1.70758e-07
1.40364e-07
1.16777e-07
9.80391e-08
8.28652e-08
7.05767e-08
6.05114e-08
5.21621e-08
4.51441e-08
3.91594e-08
3.39704e-08
2.90217e-08
2.44284e-08
2.04633e-08
1.70487e-08
1.40617e-08
1.14421e-08
9.18957e-09
7.11541e-09
5.36152e-09
3.82568e-09
2.55754e-09
1.79706e-09
1.33151e-09
1.04798e-09
8.74765e-10
4.9537e-10
1.59571e-09
1.43565e-08
1.95202e-07
4.04299e-06
9.2612e-05
0.000294604
0.000394568
0.000470718
0.000530339
0.000554412
0.000521467
0.00037043
0.000189947
6.92203e-05
4.67917e-05
5.12399e-05
6.45597e-05
7.57118e-05
8.39428e-05
9.87204e-05
0.000124011
0.000164
0.000224025
0.000310124
0.000428856
0.000587626
0.000792821
0.000739379
0.000793559
0.00166351
0.0019863
0.0019993
0.000726719
0.00105342
0.00297231
0.00310588
0.00319355
0.0032407
0.00325484
0.00325479
0.00324859
0.00324077
0.00323375
0.00322365
0.00320935
0.00320425
0.00319895
0.00319305
0.00318621
0.00317818
0.0031687
0.00317187
0.00318104
0.00318883
0.00319546
0.0032012
0.00320636
0.00321134
0.0032248
0.00323449
0.00324145
0.00324918
0.00325524
0.00325502
0.00324023
0.00319316
0.00310594
0.000585625
0.00125112
0.00136599
0.00101887
0.000719717
0.000761602
0.00110559
0.0010491
0.000795212
0.000589819
0.000430812
0.000311941
0.000225768
0.000165594
0.000125678
0.000101468
8.9831e-05
8.82166e-05
9.11671e-05
9.20902e-05
8.64378e-05
8.2564e-05
0.000151093
0.000310523
0.000459545
0.000505398
0.000502518
0.000470573
0.00043039
0.000357692
0.000198781
6.75413e-05
3.37388e-06
1.66584e-06
1.42263e-06
1.19796e-06
1.04113e-06
9.26821e-07
8.34092e-07
7.63572e-07
7.09055e-07
6.65854e-07
6.30589e-07
6.00015e-07
5.7084e-07
5.4565e-07
5.24137e-07
5.06086e-07
4.91876e-07
4.82087e-07
4.75811e-07
4.72216e-07
4.71127e-07
4.72406e-07
4.75994e-07
4.81831e-07
4.8981e-07
4.99739e-07
5.11336e-07
5.24159e-07
5.36088e-07
5.52595e-07
5.66385e-07
5.78726e-07
5.88628e-07
5.92456e-07
5.84775e-07
5.60408e-07
5.15707e-07
4.50711e-07
3.69997e-07
2.73116e-07
1.31834e-07
2.55171e-09
1.42106e-10
9.7553e-11
6.36651e-11
4.13866e-11
1.13649e-10
4.26015e-10
9.36383e-10
1.47483e-09
2.29438e-09
3.68615e-09
6.97365e-09
1.19413e-08
1.87417e-08
2.94998e-08
4.78502e-08
7.77483e-08
1.21446e-07
1.85764e-07
2.44894e-07
2.84757e-07
3.16482e-07
3.44353e-07
2.72009e-06
5.12922e-06
7.59165e-06
1.02354e-05
1.32317e-05
1.71901e-05
1.87004e-05
2.0511e-05
2.3272e-05
2.67547e-05
3.02405e-05
3.25796e-05
3.33762e-05
3.27972e-05
3.11459e-05
2.8777e-05
2.60605e-05
2.27427e-05
1.91871e-05
1.62086e-05
1.38616e-05
1.19624e-05
1.03985e-05
9.2909e-06
7.67701e-06
6.33798e-06
5.26831e-06
4.37383e-06
3.68692e-06
3.12071e-06
2.62882e-06
2.26094e-06
1.97057e-06
1.6877e-06
1.42422e-06
1.20421e-06
1.02783e-06
8.83415e-07
7.63124e-07
6.63229e-07
5.79538e-07
5.08699e-07
4.48068e-07
3.95504e-07
3.49201e-07
3.038e-07
2.606e-07
2.22507e-07
1.88873e-07
1.58833e-07
1.3197e-07
1.08385e-07
8.59537e-08
6.64346e-08
4.87312e-08
3.35524e-08
2.43182e-08
1.86275e-08
1.51981e-08
1.31892e-08
7.78319e-09
2.58834e-08
2.31445e-07
2.86515e-06
3.99945e-06
8.12114e-05
0.000281316
0.000390384
0.000469781
0.000531037
0.000556527
0.000524722
0.000374434
0.000193405
7.03167e-05
4.61755e-05
4.97752e-05
6.31788e-05
7.49377e-05
8.35602e-05
9.85413e-05
0.000123905
0.000163904
0.000223922
0.000310011
0.00042873
0.000587484
0.00079266
0.00104637
0.0013423
0.00166329
0.00198608
0.00229062
0.00123975
0.00269495
0.00297225
0.00310589
0.00319362
0.00324077
0.00325483
0.00325476
0.00324856
0.00324073
0.00323371
0.00322358
0.00320924
0.00320414
0.00319883
0.00319292
0.00318607
0.00317803
0.00316853
0.00317311
0.00318217
0.00318986
0.00319641
0.00320208
0.00320718
0.00321212
0.00322525
0.00323478
0.00324171
0.00324941
0.00325541
0.0032551
0.00324014
0.0031931
0.003106
0.000893249
0.00180822
0.00192622
0.00137856
0.0010688
0.00109428
0.00134573
0.00104967
0.000795775
0.000590382
0.00043137
0.000312461
0.000226216
0.000165952
0.000125997
0.000101903
9.06755e-05
9.01134e-05
9.60714e-05
0.000102094
0.000100507
9.39778e-05
0.000144333
0.000290251
0.000435707
0.000486473
0.000492413
0.000472784
0.00044417
0.000375726
0.000228637
9.5569e-05
9.77354e-06
5.69863e-06
5.08553e-06
4.51962e-06
4.09241e-06
3.76292e-06
3.47237e-06
3.24205e-06
3.0572e-06
2.90567e-06
2.77799e-06
2.66433e-06
2.55315e-06
2.45533e-06
2.37035e-06
2.29807e-06
2.23911e-06
2.19414e-06
2.16105e-06
2.13775e-06
2.12326e-06
2.11679e-06
2.11773e-06
2.12548e-06
2.13944e-06
2.15887e-06
2.18287e-06
2.21014e-06
2.23327e-06
2.27335e-06
2.30481e-06
2.33327e-06
2.35449e-06
2.35791e-06
2.32699e-06
2.24389e-06
2.09328e-06
1.86949e-06
1.5819e-06
1.22445e-06
6.50972e-07
1.44268e-08
8.52154e-10
7.32595e-10
5.91823e-10
4.74788e-10
1.2237e-09
2.93797e-09
3.88972e-09
5.07757e-09
6.64645e-09
8.8691e-09
1.29688e-08
1.94083e-08
2.99193e-08
4.79151e-08
6.19977e-08
7.69441e-08
6.91789e-08
5.94336e-08
5.29323e-08
4.85907e-08
4.62316e-08
4.47942e-08
5.82234e-07
3.0978e-06
5.08187e-06
7.12743e-06
9.33126e-06
1.2014e-05
1.53002e-05
1.96504e-05
2.58591e-05
2.76755e-05
3.16177e-05
3.70544e-05
4.25897e-05
4.68281e-05
4.91182e-05
4.93144e-05
4.76784e-05
4.42651e-05
3.99208e-05
3.54076e-05
3.11663e-05
2.73458e-05
2.3512e-05
2.03286e-05
1.7383e-05
1.49814e-05
1.30669e-05
1.14111e-05
1.01052e-05
8.83641e-06
7.51759e-06
6.51574e-06
5.72169e-06
5.08926e-06
4.56475e-06
4.10264e-06
3.72109e-06
3.39669e-06
3.11428e-06
2.87024e-06
2.65791e-06
2.47197e-06
2.30822e-06
2.16307e-06
2.03311e-06
1.86028e-06
1.66012e-06
1.47652e-06
1.30718e-06
1.14897e-06
1.00027e-06
8.62242e-07
7.18015e-07
5.82392e-07
4.48744e-07
3.23978e-07
2.44954e-07
1.95123e-07
1.65324e-07
1.49e-07
9.11208e-08
2.96587e-07
2.3148e-06
1.9974e-05
4.05203e-06
7.07036e-05
0.000263518
0.000384388
0.000468012
0.000531193
0.000558283
0.000527814
0.000378597
0.000197127
7.17149e-05
4.57778e-05
4.85156e-05
6.19098e-05
7.42099e-05
8.31998e-05
9.83692e-05
0.000123801
0.000163808
0.000223819
0.000309895
0.000428599
0.000587336
0.000792492
0.00104619
0.0013421
0.00166304
0.00198584
0.00229045
0.00242535
0.00279059
0.00297219
0.0031059
0.0031937
0.00324086
0.00325482
0.00325474
0.00324853
0.0032407
0.00323367
0.00322352
0.00320914
0.00320403
0.00319872
0.00319279
0.00318594
0.00317788
0.00316837
0.00317472
0.00318362
0.00319118
0.00319763
0.00320322
0.00320825
0.00321314
0.00322584
0.00323516
0.00324206
0.00324971
0.00325565
0.00325521
0.00324004
0.00319304
0.00310608
0.00146145
0.00236714
0.0024303
0.00175598
0.00141931
0.00140073
0.00134631
0.0010503
0.000796424
0.000591021
0.000431986
0.000313009
0.000226655
0.000166282
0.000126271
0.00010224
9.12797e-05
9.14748e-05
9.98795e-05
0.000110937
0.000115302
0.000109717
0.000141954
0.000268023
0.000407155
0.00046421
0.000481452
0.000477359
0.000460656
0.000396597
0.000261093
0.0001258
2.09273e-05
1.41361e-05
1.27964e-05
1.15081e-05
1.05306e-05
9.76879e-06
9.02238e-06
8.42246e-06
7.93435e-06
7.52872e-06
7.18235e-06
6.8705e-06
6.56322e-06
6.29028e-06
6.0503e-06
5.84371e-06
5.67217e-06
5.53671e-06
5.43355e-06
5.35798e-06
5.30661e-06
5.27655e-06
5.26574e-06
5.27231e-06
5.29471e-06
5.33135e-06
5.38054e-06
5.43997e-06
5.49233e-06
5.59464e-06
5.68405e-06
5.77684e-06
5.86011e-06
5.90587e-06
5.87158e-06
5.71139e-06
5.38588e-06
4.87875e-06
4.20719e-06
3.33695e-06
1.82216e-06
4.21544e-08
2.64733e-09
2.67855e-09
3.8405e-09
4.30861e-09
9.68084e-09
1.36953e-08
1.64777e-08
2.14499e-08
3.03829e-08
4.63584e-08
6.72898e-08
7.22608e-08
6.39937e-08
5.65186e-08
5.15181e-08
4.81394e-08
4.57188e-08
4.38449e-08
4.26477e-08
4.28156e-08
4.64112e-08
5.36293e-08
1.23495e-07
9.48154e-07
2.99024e-06
4.73111e-06
6.6053e-06
8.71695e-06
1.11701e-05
1.42068e-05
1.85401e-05
2.44998e-05
3.39322e-05
3.7678e-05
4.30963e-05
5.10322e-05
5.90539e-05
6.52143e-05
6.87143e-05
6.91686e-05
6.70735e-05
6.31555e-05
5.81436e-05
5.26631e-05
4.65401e-05
4.07825e-05
3.55796e-05
3.1086e-05
2.72897e-05
2.37869e-05
2.09183e-05
1.84784e-05
1.63227e-05
1.45678e-05
1.30456e-05
1.17952e-05
1.07384e-05
9.74624e-06
8.94181e-06
8.26183e-06
7.6674e-06
7.15242e-06
6.70336e-06
6.30994e-06
5.96449e-06
5.66046e-06
5.39121e-06
5.1287e-06
4.87953e-06
4.662e-06
4.47675e-06
4.32396e-06
4.20541e-06
4.12914e-06
3.83576e-06
3.40459e-06
2.89012e-06
2.29286e-06
1.8767e-06
1.59589e-06
1.42632e-06
1.34458e-06
8.54729e-07
2.35849e-06
1.3222e-05
6.94995e-05
4.32552e-06
6.1542e-05
0.000240901
0.000375545
0.000464969
0.000530591
0.000559579
0.000530737
0.000383038
0.000201268
7.35136e-05
4.55875e-05
4.74257e-05
6.07259e-05
7.35162e-05
8.28566e-05
9.82009e-05
0.000123695
0.000163708
0.00022371
0.000309773
0.00042846
0.000587177
0.000792312
0.00104599
0.00134187
0.00166279
0.00198561
0.0022903
0.00256165
0.00279049
0.00297212
0.00310592
0.00319379
0.00324094
0.00325482
0.00325471
0.0032485
0.00324066
0.00323363
0.00322347
0.00320904
0.00320392
0.00319861
0.00319268
0.00318581
0.00317774
0.00316821
0.00317675
0.00318546
0.00319287
0.00319918
0.00320466
0.00320961
0.00321442
0.00322659
0.00323565
0.0032425
0.0032501
0.00325595
0.00325535
0.00323994
0.00319298
0.00310619
0.00225197
0.00279312
0.00256536
0.00209703
0.00173614
0.00164782
0.00134699
0.00105102
0.000797158
0.000591726
0.000432632
0.000313545
0.000227057
0.000166567
0.000126494
0.000102482
9.16609e-05
9.23089e-05
0.000102402
0.000117723
0.000129102
0.000128794
0.000147181
0.000247446
0.000376219
0.000440625
0.000471565
0.000484754
0.000478626
0.000419096
0.000294775
0.000159467
3.79103e-05
2.87896e-05
2.60803e-05
2.3439e-05
2.13726e-05
1.96949e-05
1.82662e-05
1.71038e-05
1.61506e-05
1.536e-05
1.46926e-05
1.40997e-05
1.35162e-05
1.30082e-05
1.25644e-05
1.21776e-05
1.18452e-05
1.15666e-05
1.13388e-05
1.11588e-05
1.10248e-05
1.09341e-05
1.08847e-05
1.08737e-05
1.08984e-05
1.09563e-05
1.10445e-05
1.11574e-05
1.12569e-05
1.14534e-05
1.16062e-05
1.1739e-05
1.18225e-05
1.18147e-05
1.16626e-05
1.13171e-05
1.07464e-05
9.96102e-06
9.02071e-06
7.76668e-06
4.50376e-06
1.11311e-07
7.21596e-09
8.75888e-09
1.67385e-08
3.12379e-08
5.80756e-08
6.8746e-08
8.51363e-08
1.07288e-07
1.09003e-07
9.35615e-08
7.89573e-08
6.81024e-08
6.00396e-08
5.39893e-08
4.94552e-08
4.62619e-08
4.50965e-08
4.70195e-08
5.2808e-08
6.37516e-08
8.10037e-08
9.72724e-08
1.1951e-07
3.89334e-07
1.27647e-06
2.76077e-06
4.30424e-06
6.09453e-06
8.15911e-06
1.06093e-05
1.37803e-05
1.7985e-05
2.42337e-05
3.33163e-05
4.81207e-05
5.12212e-05
5.94959e-05
7.06079e-05
8.10681e-05
8.88163e-05
9.31584e-05
9.40267e-05
9.18445e-05
8.73027e-05
8.06396e-05
7.29784e-05
6.52917e-05
5.80062e-05
5.14058e-05
4.52347e-05
3.99742e-05
3.55531e-05
3.17711e-05
2.85828e-05
2.57307e-05
2.33815e-05
2.14244e-05
1.97034e-05
1.82548e-05
1.70105e-05
1.59164e-05
1.49738e-05
1.41592e-05
1.34544e-05
1.28463e-05
1.23248e-05
1.18772e-05
1.14736e-05
1.11224e-05
1.08424e-05
1.06416e-05
1.05317e-05
1.05283e-05
1.06634e-05
1.09007e-05
1.13336e-05
1.14847e-05
1.03124e-05
9.45542e-06
8.86371e-06
8.55478e-06
8.53593e-06
5.90527e-06
1.16195e-05
4.44695e-05
0.000159895
5.09208e-06
5.39682e-05
0.000214274
0.00036241
0.000459959
0.000528909
0.000560271
0.000533485
0.000387914
0.000206042
7.58572e-05
4.56176e-05
4.64782e-05
5.95987e-05
7.28408e-05
8.25239e-05
9.8032e-05
0.000123584
0.000163601
0.000223593
0.00030964
0.000428309
0.000587005
0.000792117
0.00104578
0.00134163
0.00166254
0.00198539
0.00229016
0.00256155
0.00279037
0.00297205
0.00310594
0.00319389
0.00324103
0.00325481
0.00325469
0.00324847
0.00324063
0.0032336
0.00322341
0.00320895
0.00320382
0.0031985
0.00319256
0.00318569
0.0031776
0.00316806
0.00317926
0.00318773
0.00319494
0.0032011
0.00320644
0.00321128
0.003216
0.00322751
0.00323625
0.00324305
0.00325058
0.00325632
0.00325554
0.00323983
0.00319293
0.00310634
0.00297397
0.00279352
0.00256582
0.0022954
0.00199136
0.00166863
0.00134777
0.00105185
0.000797968
0.00059247
0.000433269
0.000314036
0.000227403
0.000166805
0.000126674
0.000102653
9.18794e-05
9.27368e-05
0.000103787
0.000122128
0.000140244
0.000148708
0.00016147
0.000233981
0.000347569
0.000419163
0.000465208
0.000494405
0.000496225
0.000441875
0.000329126
0.000198128
6.2076e-05
5.1638e-05
4.66756e-05
4.22365e-05
3.86437e-05
3.56562e-05
3.31545e-05
3.10756e-05
2.93402e-05
2.78816e-05
2.66386e-05
2.55282e-05
2.44349e-05
2.34906e-05
2.26727e-05
2.19665e-05
2.13633e-05
2.08584e-05
2.04448e-05
2.0116e-05
1.9866e-05
1.96873e-05
1.95745e-05
1.95209e-05
1.95214e-05
1.95707e-05
1.9663e-05
1.97868e-05
1.98866e-05
2.01219e-05
2.02683e-05
2.03523e-05
2.03152e-05
2.0082e-05
1.95589e-05
1.86545e-05
1.72998e-05
1.55051e-05
1.33965e-05
1.10803e-05
8.13379e-06
2.19174e-07
1.90906e-08
3.15832e-08
8.42107e-08
1.70326e-07
2.23509e-07
1.97905e-07
1.68458e-07
1.37234e-07
1.11354e-07
9.13342e-08
7.60405e-08
6.45995e-08
5.62547e-08
5.1324e-08
5.09245e-08
5.49984e-08
6.28976e-08
7.19371e-08
8.3301e-08
1.00562e-07
1.17726e-07
1.2862e-07
1.41767e-07
2.2139e-07
5.86042e-07
1.40513e-06
2.59314e-06
4.03074e-06
5.75489e-06
7.79889e-06
1.03409e-05
1.36245e-05
1.81826e-05
2.4573e-05
3.44948e-05
4.88863e-05
6.37802e-05
6.96553e-05
8.24751e-05
9.69972e-05
0.000109625
0.000118886
0.000124103
0.00012514
0.0001221
0.000115738
0.000107441
9.81818e-05
8.87593e-05
7.94558e-05
7.09888e-05
6.36229e-05
5.72517e-05
5.1756e-05
4.68707e-05
4.27848e-05
3.93715e-05
3.64294e-05
3.39262e-05
3.17749e-05
2.98917e-05
2.82827e-05
2.69089e-05
2.57389e-05
2.47521e-05
2.39342e-05
2.32731e-05
2.27438e-05
2.2352e-05
2.21281e-05
2.21e-05
2.23125e-05
2.28265e-05
2.37519e-05
2.52527e-05
2.75832e-05
3.02618e-05
2.96629e-05
2.9539e-05
2.98361e-05
3.05751e-05
3.18223e-05
2.44728e-05
3.58754e-05
0.000102213
0.000235254
6.97298e-06
4.82017e-05
0.000185777
0.0003433
0.00045188
0.000525642
0.000560146
0.000536044
0.000393435
0.000211733
7.89508e-05
4.59112e-05
4.5656e-05
5.84991e-05
7.21648e-05
8.21936e-05
9.78571e-05
0.000123461
0.00016348
0.000223461
0.00030949
0.000428141
0.000586815
0.000791905
0.00104555
0.00134139
0.00166229
0.00198517
0.00229001
0.00256144
0.00279024
0.00297198
0.00310596
0.00319399
0.00324112
0.00325481
0.00325467
0.00324844
0.0032406
0.00323356
0.00322336
0.00320886
0.00320373
0.0031984
0.00319246
0.00318557
0.00317748
0.00316793
0.00318225
0.00319044
0.00319742
0.00320339
0.00320858
0.00321329
0.0032179
0.00322863
0.00323698
0.00324372
0.00325116
0.00325678
0.00325578
0.00323973
0.00319288
0.00310653
0.00297433
0.002794
0.00256639
0.00229604
0.00199207
0.00166944
0.00134866
0.00105276
0.000798825
0.000593214
0.00043386
0.000314464
0.000227698
0.00016701
0.000126829
0.000102783
9.20015e-05
9.29082e-05
0.000104366
0.00012444
0.000147799
0.000166168
0.000182344
0.00023334
0.000327479
0.000404484
0.00046377
0.000504378
0.000511532
0.000463871
0.000364224
0.00024292
9.51546e-05
8.49445e-05
7.65097e-05
6.97799e-05
6.40628e-05
5.92258e-05
5.5124e-05
5.16474e-05
4.86986e-05
4.61892e-05
4.40325e-05
4.21225e-05
4.03551e-05
3.88336e-05
3.75218e-05
3.63938e-05
3.54313e-05
3.46209e-05
3.39493e-05
3.34037e-05
3.29724e-05
3.26411e-05
3.24002e-05
3.22387e-05
3.21466e-05
3.21128e-05
3.2122e-05
3.21506e-05
3.21451e-05
3.22319e-05
3.21688e-05
3.19571e-05
3.14999e-05
3.06808e-05
2.93554e-05
2.73849e-05
2.46721e-05
2.12559e-05
1.73522e-05
1.3322e-05
8.89205e-06
2.11417e-07
6.46951e-08
1.60705e-07
3.32794e-07
3.4818e-07
2.73811e-07
2.14248e-07
1.67915e-07
1.32199e-07
1.04959e-07
8.46833e-08
7.01071e-08
6.21892e-08
6.13114e-08
6.59332e-08
7.19999e-08
7.63456e-08
8.10772e-08
8.9409e-08
1.04656e-07
1.20263e-07
1.29112e-07
1.3264e-07
1.35992e-07
1.66976e-07
2.97811e-07
6.7719e-07
1.39078e-06
2.54026e-06
3.84891e-06
5.59471e-06
7.7159e-06
1.03426e-05
1.38427e-05
1.86847e-05
2.57937e-05
3.58976e-05
5.14277e-05
7.53329e-05
8.32626e-05
9.55204e-05
0.000113317
0.000130992
0.000145747
0.000156399
0.00016193
0.000162125
0.000157787
0.000150036
0.000140033
0.00012876
0.000117339
0.00010664
9.69824e-05
8.83471e-05
8.05993e-05
7.39552e-05
6.83326e-05
6.35057e-05
5.93741e-05
5.5832e-05
5.27666e-05
5.01628e-05
4.79671e-05
4.61333e-05
4.46327e-05
4.3448e-05
4.25719e-05
4.19943e-05
4.17262e-05
4.18216e-05
4.23522e-05
4.34409e-05
4.52588e-05
4.80987e-05
5.24839e-05
5.89805e-05
6.3763e-05
6.5034e-05
6.74913e-05
7.07009e-05
7.4589e-05
7.9204e-05
6.49293e-05
7.93958e-05
0.000186084
0.000294124
1.14198e-05
4.47742e-05
0.000158449
0.000317003
0.000439061
0.000519973
0.000558857
0.000538367
0.000399853
0.000218715
8.30805e-05
4.65541e-05
4.49558e-05
5.73984e-05
7.14652e-05
8.18555e-05
9.76694e-05
0.000123321
0.000163339
0.000223305
0.000309315
0.000427946
0.000586599
0.00079167
0.0010453
0.00134113
0.00166203
0.00198495
0.00228985
0.0025613
0.00279011
0.0029719
0.00310598
0.00319409
0.00324121
0.0032548
0.00325465
0.00324841
0.00324057
0.00323353
0.00322331
0.00320878
0.00320364
0.00319831
0.00319236
0.00318546
0.00317736
0.00316779
0.0031857
0.00319356
0.00320028
0.00320603
0.00321104
0.0032156
0.00322008
0.00322992
0.00323783
0.0032445
0.00325185
0.00325732
0.00325606
0.00323963
0.00319286
0.00310676
0.00297478
0.00279457
0.00256706
0.00229682
0.00199293
0.00167038
0.00134965
0.00105373
0.000799686
0.000593915
0.000434385
0.000314835
0.000227959
0.000167204
0.00012698
0.000102898
9.20748e-05
9.29363e-05
0.000104463
0.000125271
0.000151869
0.000178606
0.000203627
0.000245524
0.000321625
0.000399488
0.000465729
0.000511965
0.000523179
0.000484363
0.000400036
0.000293795
0.000137643
0.000129906
0.0001169
0.000107659
9.93169e-05
9.21408e-05
8.59211e-05
8.05473e-05
7.59137e-05
7.19156e-05
6.84476e-05
6.53974e-05
6.26856e-05
6.03455e-05
5.8327e-05
5.65902e-05
5.51028e-05
5.38382e-05
5.27726e-05
5.18824e-05
5.11453e-05
5.05349e-05
5.00319e-05
4.96179e-05
4.92744e-05
4.89789e-05
4.87001e-05
4.83975e-05
4.80215e-05
4.76181e-05
4.69481e-05
4.59599e-05
4.44959e-05
4.23812e-05
3.94228e-05
3.54847e-05
3.05809e-05
2.49792e-05
1.92516e-05
1.38348e-05
8.37263e-06
3.19088e-07
3.29733e-07
5.41295e-07
4.54502e-07
3.65623e-07
2.67339e-07
2.03219e-07
1.56434e-07
1.2161e-07
9.6527e-08
8.24629e-08
7.83453e-08
8.11548e-08
8.15608e-08
7.9915e-08
7.89283e-08
8.04358e-08
8.71204e-08
1.01267e-07
1.11034e-07
1.18413e-07
1.25643e-07
1.24501e-07
1.24662e-07
1.40225e-07
1.81858e-07
3.33542e-07
7.13746e-07
1.34179e-06
2.55634e-06
3.76127e-06
5.53456e-06
7.8674e-06
1.0666e-05
1.43534e-05
1.96194e-05
2.7152e-05
3.8187e-05
5.46562e-05
7.89104e-05
0.000102743
0.000110922
0.000130434
0.000152786
0.000173309
0.000190002
0.000201348
0.000206587
0.000205986
0.000200384
0.000191004
0.000179264
0.000166667
0.000154273
0.000142469
0.000131479
0.000121669
0.000113139
0.000105746
9.93521e-05
9.38543e-05
8.91308e-05
8.51364e-05
8.18074e-05
7.90851e-05
7.69351e-05
7.53424e-05
7.43113e-05
7.38674e-05
7.40384e-05
7.49119e-05
7.66256e-05
7.94289e-05
8.36727e-05
8.99355e-05
9.92636e-05
0.000112032
0.000116732
0.000121684
0.000128697
0.000136999
0.000146407
0.000156896
0.000132994
0.000143131
0.000273509
0.000413961
2.22496e-05
4.52672e-05
0.000135647
0.000284161
0.000419334
0.000510585
0.000555822
0.000540331
0.000407458
0.000227465
8.86439e-05
4.76964e-05
4.43948e-05
5.62698e-05
7.0714e-05
8.14968e-05
9.74602e-05
0.000123156
0.000163169
0.000223117
0.000309105
0.000427716
0.000586348
0.000791402
0.00104502
0.00134085
0.00166176
0.00198472
0.00228968
0.00256115
0.00278996
0.00297182
0.003106
0.00319419
0.00324129
0.0032548
0.00325463
0.00324839
0.00324054
0.0032335
0.00322326
0.0032087
0.00320356
0.00319822
0.00319226
0.00318536
0.00317725
0.00316767
0.00318951
0.00319701
0.00320344
0.00320894
0.00321376
0.00321815
0.0032225
0.00323136
0.00323878
0.00324539
0.00325263
0.00325794
0.0032564
0.00323955
0.00319286
0.00310704
0.00297531
0.00279525
0.00256784
0.00229771
0.0019939
0.00167141
0.0013507
0.0010547
0.000800505
0.000594551