/*--------------------------------*- C++ -*----------------------------------*\
| =========                 |                                                 |
| \\      /  F ield         | OpenFOAM: The Open Source CFD Toolbox           |
|  \\    /   O peration     | Version:  2112                                  |
|   \\  /    A nd           | Website:  www.openfoam.com                      |
|    \\/     M anipulation  |                                                 |
\*---------------------------------------------------------------------------*/
FoamFile
{
    version     2.0;
    format      ascii;
    arch        "LSB;label=32;scalar=64";
    class       volScalarField;
    location    "602";
    object      omega;
}
// * * * * * * * * * * * * * * * * * * * * * * * * * * * * * * * * * * * * * //

dimensions      [0 0 -1 0 0 0 0];

internalField   nonuniform List<scalar> 
14336
(
0.223359
0.230537
0.236812
0.242235
0.246884
0.250847
0.254228
0.256438
0.258709
0.261146
0.263615
0.266417
0.269939
0.275023
0.282471
0.293336
0.308923
0.33106
0.36251
0.407514
0.472484
0.56671
0.704107
0.904757
1.19916
1.63335
2.2774
3.23281
4.64523
6.72742
9.83914
14.716
23.08
39.5227
81.9332
207.777
550.999
1221.79
2092.5
2985.43
3767.35
4729.95
6060.91
8070.21
11160.1
16723.5
43998.9
731144
1.69135e+08
1.73304e+08
1.77475e+08
1.81184e+08
1.84468e+08
1.87363e+08
1.89906e+08
1.92134e+08
1.94078e+08
1.9577e+08
1.97238e+08
1.98509e+08
1.99604e+08
2.00545e+08
2.01351e+08
2.02035e+08
2.02613e+08
2.03096e+08
2.03492e+08
2.03814e+08
2.04066e+08
2.04251e+08
2.04377e+08
2.04444e+08
2.04455e+08
2.0441e+08
2.04307e+08
2.04143e+08
2.03917e+08
2.03624e+08
2.03256e+08
2.02806e+08
2.02265e+08
2.01621e+08
2.00862e+08
1.99974e+08
1.98938e+08
1.97734e+08
1.96342e+08
1.94737e+08
1.9289e+08
1.90773e+08
1.88353e+08
1.85597e+08
1.82468e+08
1.78929e+08
1.74944e+08
1.70478e+08
1.65498e+08
1.59977e+08
1.539e+08
1.47251e+08
1.40041e+08
1.32298e+08
1.24069e+08
1.15428e+08
1.06472e+08
9.73148e+07
8.80875e+07
7.89275e+07
6.99759e+07
6.13699e+07
5.32301e+07
4.59142e+07
4.59091e+07
5.3232e+07
6.13773e+07
6.99887e+07
7.89431e+07
8.81046e+07
9.73328e+07
1.0649e+08
1.15446e+08
1.24086e+08
1.32313e+08
1.40055e+08
1.47262e+08
1.53909e+08
1.59984e+08
1.65503e+08
1.70482e+08
1.74947e+08
1.78931e+08
1.8247e+08
1.85599e+08
1.88354e+08
1.90774e+08
1.92891e+08
1.94737e+08
1.96343e+08
1.97735e+08
1.98938e+08
1.99974e+08
2.00863e+08
2.01622e+08
2.02265e+08
2.02806e+08
2.03256e+08
2.03624e+08
2.03917e+08
2.04143e+08
2.04307e+08
2.0441e+08
2.04455e+08
2.04444e+08
2.04377e+08
2.04252e+08
2.04066e+08
2.03815e+08
2.03493e+08
2.03095e+08
2.02613e+08
2.02034e+08
2.01349e+08
2.00545e+08
1.99604e+08
1.9851e+08
1.97238e+08
1.9577e+08
1.94078e+08
1.92134e+08
1.89906e+08
1.87363e+08
1.84468e+08
1.81184e+08
1.77475e+08
1.73304e+08
1.69134e+08
897402
46145.4
16918.2
11233.1
8099.4
6075.19
4739.26
3774.81
2994.04
2104.88
1249.51
584.334
220.659
84.9602
40.1803
23.2517
14.7593
9.85239
6.73349
4.64836
3.23436
2.27825
1.63392
1.1995
0.90501
0.70426
0.566807
0.472563
0.407571
0.362546
0.331078
0.308926
0.293336
0.282468
0.275019
0.269937
0.266416
0.263615
0.261146
0.258709
0.25644
0.254235
0.250854
0.246891
0.242243
0.23682
0.230546
0.223369
0.223346
0.230525
0.2368
0.242224
0.246873
0.250838
0.254219
0.256435
0.258709
0.261146
0.263616
0.266417
0.269941
0.275027
0.282474
0.293335
0.308919
0.331036
0.362467
0.407447
0.472373
0.566586
0.703922
0.904452
1.19872
1.63262
2.27626
3.23075
4.64111
6.71955
9.82234
14.662
22.868
38.7161
78.2654
192.295
508.552
1180.71
2073.67
2972.88
3756.91
4717.22
6041.76
8030.48
11062.1
16507.8
42051.1
466921
2.12384e+07
2.17381e+07
2.24938e+07
2.31935e+07
2.38359e+07
2.44209e+07
2.49507e+07
2.54292e+07
2.58613e+07
2.62538e+07
2.66144e+07
2.69543e+07
2.7284e+07
2.76258e+07
2.79898e+07
2.83721e+07
2.87012e+07
2.88844e+07
2.89843e+07
2.90617e+07
2.91224e+07
2.91673e+07
2.91977e+07
2.92141e+07
2.92168e+07
2.92059e+07
2.91812e+07
2.91419e+07
2.90875e+07
2.90169e+07
2.89276e+07
2.87865e+07
2.85047e+07
2.81314e+07
2.77556e+07
2.74095e+07
2.70761e+07
2.67423e+07
2.63897e+07
2.60095e+07
2.53708e+07
2.49017e+07
2.43841e+07
2.38029e+07
2.31537e+07
2.24335e+07
2.16409e+07
2.07766e+07
1.98446e+07
1.88533e+07
1.78155e+07
1.67465e+07
1.56638e+07
1.45841e+07
1.35253e+07
1.2483e+07
1.14651e+07
1.04811e+07
9.53857e+06
8.64963e+06
8.54311e+06
7.81305e+06
7.09597e+06
6.53115e+06
6.61997e+06
7.27715e+06
8.07076e+06
8.96285e+06
9.93401e+06
1.09671e+07
1.20467e+07
1.31506e+07
1.42545e+07
1.53358e+07
1.63806e+07
1.73766e+07
1.82999e+07
1.91419e+07
1.99338e+07
2.07046e+07
2.14591e+07
2.2187e+07
2.28804e+07
2.35315e+07
2.41335e+07
2.46852e+07
2.51863e+07
2.56393e+07
2.60499e+07
2.64245e+07
2.67724e+07
2.7102e+07
2.74312e+07
2.77757e+07
2.81481e+07
2.85191e+07
2.87988e+07
2.89375e+07
2.90244e+07
2.9093e+07
2.91457e+07
2.91835e+07
2.92071e+07
2.92169e+07
2.92133e+07
2.91961e+07
2.9165e+07
2.91194e+07
2.90582e+07
2.89802e+07
2.88797e+07
2.86955e+07
2.8367e+07
2.79846e+07
2.76206e+07
2.72787e+07
2.6949e+07
2.6609e+07
2.62484e+07
2.5856e+07
2.54239e+07
2.49454e+07
2.44156e+07
2.38306e+07
2.31882e+07
2.24886e+07
2.17332e+07
2.12341e+07
913329
49985.9
17183.6
11304.9
8127.1
6089.05
4747.88
3781.33
3000.76
2112.99
1262.57
604.965
230.356
87.3419
40.6988
23.3864
14.7932
9.86279
6.73825
4.65084
3.23563
2.27894
1.63442
1.1998
0.905192
0.704374
0.566882
0.472622
0.407626
0.362576
0.331088
0.30893
0.293336
0.282465
0.275014
0.269936
0.266416
0.263615
0.261146
0.258709
0.256442
0.25424
0.25086
0.246897
0.242249
0.236827
0.230553
0.223377
0.223324
0.230505
0.236782
0.242207
0.246857
0.250822
0.254205
0.25643
0.258709
0.261146
0.263616
0.266418
0.269944
0.275033
0.282478
0.293333
0.308911
0.331003
0.362413
0.407369
0.472245
0.566434
0.703688
0.904091
1.19812
1.63162
2.27452
3.22761
4.63489
6.70799
9.79844
14.5881
22.5851
37.6521
73.5115
172.542
451.092
1111.68
2038.72
2949.96
3737.87
4693.71
6006
7957.28
10891.6
16156.6
38634.6
241871
4.48569e+06
4.7434e+06
5.00872e+06
5.25712e+06
5.48548e+06
5.69282e+06
5.88113e+06
6.05332e+06
6.21196e+06
6.35939e+06
6.49761e+06
6.62836e+06
6.75237e+06
6.87041e+06
6.98084e+06
7.08275e+06
7.16836e+06
7.22627e+06
7.26663e+06
7.29895e+06
7.32444e+06
7.34357e+06
7.3567e+06
7.36409e+06
7.36584e+06
7.362e+06
7.35244e+06
7.33692e+06
7.3151e+06
7.28666e+06
7.25072e+06
7.20188e+06
7.12625e+06
7.02935e+06
6.921e+06
6.80494e+06
6.68143e+06
6.55136e+06
6.41384e+06
6.26706e+06
6.07787e+06
5.70786e+06
5.51735e+06
5.30796e+06
5.07907e+06
4.83317e+06
4.57499e+06
4.31345e+06
4.06229e+06
3.83942e+06
3.6634e+06
3.54621e+06
3.48692e+06
3.49332e+06
3.75285e+06
3.85569e+06
3.80382e+06
3.68123e+06
3.48434e+06
3.21344e+06
2.89505e+06
2.53313e+06
2.17636e+06
1.88089e+06
1.99116e+06
2.27327e+06
2.65575e+06
3.07205e+06
3.4979e+06
3.92056e+06
4.32146e+06
4.67643e+06
4.96547e+06
5.18604e+06
5.35601e+06
5.46507e+06
5.51602e+06
5.52934e+06
5.54179e+06
5.56652e+06
5.60719e+06
5.66251e+06
5.7457e+06
5.84861e+06
5.96399e+06
6.08951e+06
6.21521e+06
6.33949e+06
6.46003e+06
6.57794e+06
6.69272e+06
6.80314e+06
6.90966e+06
7.01019e+06
7.10307e+06
7.18594e+06
7.24917e+06
7.28762e+06
7.31484e+06
7.33588e+06
7.35138e+06
7.36156e+06
7.36654e+06
7.36643e+06
7.36122e+06
7.35078e+06
7.33489e+06
7.31323e+06
7.28539e+06
7.25083e+06
7.20834e+06
7.14831e+06
7.06093e+06
6.95744e+06
6.84599e+06
6.72731e+06
6.60304e+06
6.47203e+06
6.33364e+06
6.186e+06
6.02705e+06
5.85438e+06
5.66531e+06
5.45701e+06
5.22775e+06
4.97868e+06
4.71478e+06
4.45443e+06
808172
54705.3
17548.6
11388
8157.81
6104.19
4756.98
3787.98
3007.31
2120.57
1273.3
622.422
239.495
89.6559
41.2031
23.5168
14.8261
9.87285
6.74282
4.65322
3.23688
2.27962
1.63486
1.20007
0.905374
0.704492
0.566945
0.472669
0.40768
0.362606
0.331098
0.308935
0.293336
0.28246
0.275009
0.269935
0.266415
0.263615
0.261146
0.258709
0.256444
0.254245
0.250865
0.246902
0.242255
0.236833
0.23056
0.223384
0.223294
0.230477
0.236756
0.242183
0.246835
0.250801
0.254184
0.256424
0.258708
0.261146
0.263616
0.26642
0.269949
0.27504
0.282481
0.29333
0.308895
0.330966
0.362359
0.407291
0.47212
0.566261
0.703425
0.90372
1.19743
1.63045
2.27231
3.22354
4.62713
6.69415
9.77117
14.5083
22.2914
36.5637
68.7556
153.254
391.04
1014.88
1980.08
2912.05
3706.49
4654.81
5947.07
7841.05
10644.6
15671.1
34517.1
138434
1.32978e+06
1.44336e+06
1.54391e+06
1.64235e+06
1.73695e+06
1.82587e+06
1.90874e+06
1.98579e+06
2.05723e+06
2.12333e+06
2.18443e+06
2.24082e+06
2.29267e+06
2.34044e+06
2.38395e+06
2.42317e+06
2.45665e+06
2.48217e+06
2.502e+06
2.51829e+06
2.53144e+06
2.54166e+06
2.54914e+06
2.554e+06
2.5563e+06
2.55602e+06
2.55309e+06
2.54735e+06
2.5385e+06
2.52662e+06
2.51091e+06
2.49008e+06
2.46093e+06
2.42426e+06
2.38166e+06
2.33347e+06
2.27942e+06
2.21961e+06
2.15398e+06
2.08101e+06
1.99075e+06
1.85982e+06
1.76851e+06
1.66703e+06
1.55736e+06
1.44682e+06
1.34835e+06
1.28145e+06
1.26752e+06
1.31742e+06
1.41967e+06
1.54061e+06
1.63592e+06
1.68461e+06
1.67737e+06
1.59295e+06
1.45244e+06
1.28281e+06
1.07012e+06
879567
731754
616371
519235
447365
551789
681250
843933
1.041e+06
1.2707e+06
1.52231e+06
1.77994e+06
2.03167e+06
2.26013e+06
2.4408e+06
2.56055e+06
2.65668e+06
2.71437e+06
2.72701e+06
2.70162e+06
2.65013e+06
2.58509e+06
2.52742e+06
2.50353e+06
2.48912e+06
2.48217e+06
2.48747e+06
2.49453e+06
2.50125e+06
2.51542e+06
2.53104e+06
2.54617e+06
2.55878e+06
2.56992e+06
2.5794e+06
2.58733e+06
2.5939e+06
2.59647e+06
2.59502e+06
2.59186e+06
2.58732e+06
2.58178e+06
2.57509e+06
2.56712e+06
2.55783e+06
2.54705e+06
2.53456e+06
2.5201e+06
2.50339e+06
2.48412e+06
2.46197e+06
2.43648e+06
2.40545e+06
2.36664e+06
2.32236e+06
2.27428e+06
2.22253e+06
2.1674e+06
2.10856e+06
2.04559e+06
1.97809e+06
1.90569e+06
1.82773e+06
1.74376e+06
1.65346e+06
1.55726e+06
1.45727e+06
1.35941e+06
1.2252e+06
673814
60341.4
18070.2
11490.7
8194.14
6121.69
4767.05
3795.05
3013.91
2128.01
1282.61
637.285
248.074
91.9028
41.6941
23.6432
14.8581
9.88268
6.74726
4.65553
3.23811
2.2803
1.63526
1.20033
0.905544
0.704586
0.567009
0.472718
0.407724
0.362634
0.331107
0.30894
0.293336
0.282455
0.275003
0.269934
0.266415
0.263615
0.261146
0.25871
0.256446
0.25425
0.25087
0.246908
0.242261
0.236839
0.230567
0.223392
0.223252
0.230439
0.236721
0.242151
0.246804
0.250772
0.254156
0.256415
0.258708
0.261145
0.263617
0.266422
0.269955
0.275048
0.282486
0.293325
0.308872
0.330927
0.362307
0.407217
0.472005
0.56608
0.703152
0.903307
1.19667
1.62907
2.26967
3.21863
4.61821
6.67902
9.74299
14.4312
22.0212
35.5771
64.5056
136.264
334.587
893.582
1884.77
2850.09
3655.47
4591.88
5853.38
7666.98
10316.1
15062.5
30413.3
91489
570660
628970
667938
708916
750076
789905
828064
864337
898560
930600
960389
987821
1.0128e+06
1.03564e+06
1.05633e+06
1.07489e+06
1.09105e+06
1.10436e+06
1.11546e+06
1.12493e+06
1.13297e+06
1.1397e+06
1.14523e+06
1.14964e+06
1.15297e+06
1.15516e+06
1.15613e+06
1.15571e+06
1.1536e+06
1.14997e+06
1.14398e+06
1.13517e+06
1.12246e+06
1.10569e+06
1.08484e+06
1.05959e+06
1.02962e+06
994941
955684
909779
849369
772973
714137
645767
572001
506335
470057
482030
540114
617237
678923
701460
620005
547011
472177
394163
320389
256097
202432
159554
126323
100942
81353.8
70749.9
116201
176291
244855
324070
420297
542558
696655
881754
1.08844e+06
1.29188e+06
1.4598e+06
1.57042e+06
1.61895e+06
1.61711e+06
1.57801e+06
1.5181e+06
1.45287e+06
1.4161e+06
1.39624e+06
1.38036e+06
1.36667e+06
1.35713e+06
1.35349e+06
1.34697e+06
1.35029e+06
1.35235e+06
1.35061e+06
1.3449e+06
1.3348e+06
1.3231e+06
1.31122e+06
1.29669e+06
1.27945e+06
1.26136e+06
1.24319e+06
1.2248e+06
1.20658e+06
1.1886e+06
1.17085e+06
1.1534e+06
1.13609e+06
1.11872e+06
1.10102e+06
1.08271e+06
1.0635e+06
1.0433e+06
1.02175e+06
998029
971498
942817
912585
881094
848708
815455
780953
745375
708870
670917
631223
589690
547036
506364
472700
383554
535999
66584.4
18829.2
11626.2
8239.83
6143.02
4778.77
3802.88
3020.81
2135.68
1291.24
650.183
256.163
94.0997
42.176
23.7667
14.8897
9.89248
6.75167
4.65784
3.23936
2.281
1.63567
1.20057
0.905695
0.704679
0.567086
0.472772
0.407758
0.362658
0.331116
0.308946
0.293335
0.282449
0.274997
0.269932
0.266414
0.263615
0.261146
0.25871
0.256447
0.254255
0.250875
0.246913
0.242267
0.236845
0.230574
0.223399
0.223198
0.230389
0.236674
0.242107
0.246763
0.250733
0.254119
0.256402
0.258707
0.261145
0.263617
0.266425
0.269962
0.275058
0.28249
0.293318
0.308844
0.330888
0.362257
0.407146
0.471894
0.565893
0.702873
0.90282
1.19581
1.62748
2.26665
3.2131
4.60873
6.66386
9.71641
14.364
21.7996
34.7808
61.0848
122.558
286.178
760.254
1738.25
2749.75
3573.04
4491.76
5708.95
7421.7
9913.81
14363.9
26763.3
67685.9
319159
366526
387115
410118
432753
454547
475926
496280
515576
533753
550767
566543
581041
594361
606497
617457
627191
635630
643006
649541
655358
660540
665181
669342
673027
676178
678681
680371
681035
680483
678280
674025
667219
657662
645198
629609
610673
588351
562483
531138
487783
428907
375823
312627
246022
194811
183177
210384
246247
264080
254710
223601
169122
128492
97380.3
74370.4
57870.5
46179.6
37827.2
31721.6
27102.7
23488.2
20673.5
19653.4
29092.9
48832.2
74385
105422
142383
188022
247371
328744
441429
587761
753540
910648
1.02431e+06
1.07542e+06
1.06907e+06
1.02734e+06
973298
925387
885028
853704
830041
811204
810025
810425
814967
819091
820833
822193
819084
814240
809311
800035
787262
772117
755628
738566
720605
702236
683784
665427
647203
629027
610739
592139
573002
553426
533005
511187
487768
463062
437521
411673
386514
362155
338108
315142
293703
273136
252938
232751
213463
199019
185510
135991
409891
72627.7
19931
11815.3
8300.34
6170.27
4793.06
3811.96
3028.34
2143.99
1299.83
661.745
263.893
96.2811
42.6566
23.8893
14.9215
9.90254
6.75618
4.66019
3.24065
2.28173
1.63609
1.20083
0.905847
0.704788
0.56717
0.472828
0.407787
0.362674
0.331126
0.308953
0.293334
0.282442
0.274989
0.269931
0.266414
0.263615
0.261146
0.25871
0.256449
0.25426
0.25088
0.246918
0.242272
0.236851
0.23058
0.223406
0.223128
0.230324
0.236615
0.242051
0.24671
0.250683
0.254071
0.256387
0.258706
0.261144
0.263618
0.266428
0.269972
0.275069
0.282494
0.293308
0.308812
0.330848
0.362206
0.407073
0.47178
0.5657
0.702569
0.902269
1.19482
1.62568
2.26333
3.20729
4.59941
6.64982
9.69315
14.3102
21.6354
34.205
58.5977
112.363
247.874
632.513
1534
2590.93
3441.31
4336
5494.51
7100.7
9460.7
13623.5
23721.5
53315.2
193708
228154
243494
260853
277355
293110
308708
323421
337270
350265
362428
373827
384604
394574
403737
412085
419600
426278
432221
437539
442313
446607
450487
454002
457144
459848
462004
463480
464250
463522
461650
458150
452810
445596
436526
425575
412620
397393
379389
358369
334907
295901
240941
178757
118377
78102.1
73295.2
84484.8
87749.2
79016.1
63963.6
49000
36865.3
28789.7
23764.9
20659.8
18628.1
17155.3
15943.2
14819.3
13694.2
12584
11744.3
11645.7
13280.3
18965.3
27435.9
39066.3
54017.3
72744.6
96261.7
126923
169958
232790
323679
443173
573830
684975
745739
749825
716355
669476
621902
582038
552380
531073
520491
516157
514446
513866
513712
518637
521746
523097
523265
520505
516010
508665
499303
489221
477676
465194
452181
438736
424960
410853
396336
381286
365558
349238
332010
313485
293542
272351
250279
227890
206323
185665
165869
148482
133433
120324
108685
97987.4
89319.9
86112.3
78847.3
61571.1
303468
77238
21490.2
12090.9
8384.03
6206.49
4811.23
3822.93
3036.91
2153.45
1309.01
672.586
271.447
98.4998
43.1478
24.0139
14.9545
9.91322
6.76098
4.66268
3.24201
2.2825
1.63655
1.20111
0.90602
0.704908
0.567256
0.472883
0.407814
0.362687
0.331138
0.30896
0.293332
0.282434
0.274982
0.26993
0.266414
0.263615
0.261147
0.25871
0.25645
0.254264
0.250885
0.246923
0.242277
0.236857
0.230586
0.223412
0.223039
0.230243
0.236539
0.241981
0.246644
0.25062
0.254011
0.256367
0.258704
0.261143
0.263618
0.266432
0.269983
0.275082
0.282497
0.293295
0.308778
0.330805
0.36215
0.406995
0.471655
0.565494
0.702217
0.901641
1.1937
1.6237
2.25985
3.20161
4.59091
6.63761
9.67366
14.2687
21.5211
33.8232
56.9541
105.359
219.683
524.926
1288.86
2352.83
3236.79
4103.07
5195.86
6717.05
8990.47
12886.5
21225.4
43027
120412
140484
152250
165451
178043
190156
201932
213085
223602
233481
242749
251552
260232
268312
275798
282682
288950
294597
299656
304172
308182
311728
314847
317571
319885
321727
322998
323606
323797
322059
319717
316152
311320
305280
298111
289828
280267
268899
254882
238922
225367
204568
151294
98131.4
54538.7
30441.1
26734.9
26535.8
23347.5
19143.9
15773.3
13692.8
12618
12160.2
11984
11863.7
11656.3
11281.5
10727.6
9978.25
9077.14
8224.33
7677.35
7547.4
8060.58
9937.84
13058.1
17559.3
23686.1
31744.5
42144.2
55562.5
73360.2
97975.7
134068
188132
265932
363934
461002
526404
543795
522514
481458
437980
401550
373929
355716
345200
338719
335441
334403
335864
337591
338518
338421
337524
337268
334854
330571
325360
319001
311805
304071
295729
286868
277511
267613
257091
245853
233849
220918
206870
191615
175218
157936
140210
122814
106086
90582
77881.4
67092.2
58087.9
50657.9
44395.7
40112.6
40919.1
40268.4
34466.4
218936
79092.3
23581.3
12503.7
8504.15
6256.24
4835.16
3836.69
3047.08
2164.68
1319.46
683.321
279.05
100.829
43.6665
24.1444
14.99
9.92501
6.76628
4.66541
3.24351
2.28334
1.63704
1.20141
0.906208
0.705032
0.567342
0.472936
0.407841
0.362701
0.331153
0.308968
0.293331
0.282426
0.274974
0.269928
0.266413
0.263615
0.261147
0.25871
0.256452
0.254269
0.250889
0.246928
0.242282
0.236862
0.230592
0.223419
0.222931
0.230143
0.236447
0.241895
0.246563
0.250543
0.253937
0.256342
0.258703
0.261142
0.263619
0.266437
0.269997
0.275095
0.2825
0.293277
0.308742
0.330757
0.362083
0.406902
0.471514
0.565263
0.701809
0.900928
1.19246
1.62161
2.25643
3.19642
4.58354
6.6272
9.65704
14.2355
21.4394
33.5748
55.9367
100.883
200.284
443.744
1045.37
2031.78
2939.01
3777.91
4820.74
6303.93
8534.31
12174.2
19104.6
34885.6
76686.8
89213.8
97851.4
106630
115238
123652
131792
139599
147023
154037
160648
167022
173721
180009
185895
191376
196435
201052
205212
208913
212164
214986
217399
219423
221036
222178
222757
222690
222092
220028
217443
214031
209861
205003
199480
193240
186062
177350
166225
152453
136224
116728
75496.5
41778.5
20577.4
11329.8
9497.24
8753.14
8127.64
7858.89
7926.91
8204.59
8546.82
8845.2
8991.53
8931.47
8626.61
8065.08
7327.69
6400.36
5494.67
4837.26
4451.23
4307.25
4472.9
5239.97
6715.13
8705.53
11426.4
15250.2
20229.1
26654.6
35060
46308.1
61862.8
84047.6
117085
166082
233794
309998
372679
399611
389709
358191
321417
289246
264906
248354
236911
229470
225127
223281
222833
222682
222268
221730
221238
219879
217550
214540
210869
206662
202109
197013
191445
185427
178932
171904
164273
155948
146862
136933
126110
114410
102001
89189.1
76417.6
64235.5
53641.6
45019.6
37755.6
31796.6
27040.6
23230.2
20808.3
22838
24960.9
21291
154832
77338.5
26143.2
13124.9
8682.01
6326.69
4867.72
3854.57
3059.62
2178.46
1331.97
694.599
286.979
103.363
44.2351
24.2862
15.0295
9.93853
6.77239
4.66854
3.24522
2.28429
1.63759
1.20174
0.90641
0.705162
0.567429
0.472989
0.407868
0.362718
0.331169
0.308976
0.293329
0.282417
0.274966
0.269927
0.266413
0.263615
0.261147
0.25871
0.256453
0.254273
0.250894
0.246932
0.242287
0.236867
0.230597
0.223425
0.222803
0.230025
0.236337
0.241792
0.246467
0.250451
0.25385
0.256313
0.258701
0.261141
0.26362
0.266443
0.270013
0.275109
0.2825
0.293255
0.308702
0.330698
0.362003
0.406788
0.471345
0.564989
0.701343
0.900137
1.19115
1.61952
2.25325
3.19188
4.57724
6.61798
9.64164
14.2055
21.372
33.3938
55.2905
98.1227
187.677
387.665
846.259
1671.69
2553.35
3375.39
4410.27
5902.4
8104.97
11474.2
17185.6
28233.5
50220.2
58119.2
64198.7
70088.5
76056.2
81984.4
87825
93546.8
99088.9
104406
109477
114332
119009
123370
127420
131163
134605
137753
140609
143180
145469
147487
149232
150706
151887
152739
153211
153265
152866
151774
150216
148074
145329
141943
137818
132782
126484
118228
107288
92853.7
71945.6
44004.4
26043.7
13078.7
7151.21
5146.86
4996.77
5152.75
5437.42
5804.1
6193.21
6554.42
6802
6895.9
6738.65
6344.28
5704.21
4896.58
4094.69
3404.3
2904.32
2571.39
2369.67
2281.88
2304.53
2612.02
3311.27
4380.23
5715.19
7495.85
9950.09
13357.4
17762.9
23465.9
31077.1
41509.1
56173.9
77125.5
108152
152875
209281
262697
293377
293643
272605
243417
216103
194931
179345
168311
160864
156072
153158
151210
149595
148323
147291
146031
144345
142256
139828
137069
134025
130656
126970
122967
118622
113894
108735
103059
96844.1
90069.2
82716.9
74795.5
66412
57765.8
49122.4
41002.5
34328.3
28598.7
23771.8
19824.2
16699.8
14246.9
12844.8
15039.6
17434.2
13519
107940
72108.4
28878.1
14038.9
8951.77
6429.37
4913.37
3878.53
3075.57
2195.82
1347.51
707.152
295.57
106.229
44.8842
24.4464
15.0752
9.95461
6.77966
4.67226
3.24722
2.28539
1.63821
1.2021
0.906629
0.705299
0.567517
0.473042
0.407896
0.362738
0.331186
0.308984
0.293328
0.282408
0.274959
0.269926
0.266413
0.263615
0.261147
0.25871
0.256454
0.254276
0.250898
0.246936
0.242291
0.236872
0.230602
0.22343
0.222656
0.22989
0.236212
0.241675
0.246356
0.250347
0.253749
0.25628
0.258699
0.261139
0.263621
0.26645
0.270031
0.275123
0.282499
0.293227
0.308652
0.330628
0.361906
0.40665
0.471142
0.564671
0.700825
0.8993
1.18984
1.61756
2.25042
3.18794
4.57155
6.60896
9.62565
14.1742
21.3044
33.2287
54.7989
96.3052
179.642
351.352
707.697
1352.22
2146.71
2963.62
4023.67
5537.81
7687.98
10748.5
15356.6
22830.3
34094.4
39269.1
43404.9
47315.4
51365.3
55428
59497.7
63542.5
67517.3
71383
75109.5
78680.7
82067.8
85241.4
88192.7
90920.5
93429.5
95726.6
97816.3
99707.9
101409
102932
104275
105440
106411
107161
107655
107855
107701
107145
106195
104798
102903
100430
97198.9
92902.8
86987.6
78499.3
66608.8
51373.7
32733.8
12186.7
7071.17
4488.47
3670.42
3607.07
3896.7
4179.14
4480.92
4771.26
4999.46
5136.21
5073.13
4828.28
4294.82
3659.11
3044.1
2492.64
2040.18
1712.43
1483.95
1328.44
1230.41
1183.57
1184.71
1293.96
1573.79
2099.86
2846.35
3756.32
4944.1
6610.72
8933.64
12190.6
16310.6
21709.6
29010.7
39036.6
52997.6
72990.7
102142
141459
183177
213416
221319
209827
188480
166259
147744
133703
123576
116407
111443
107893
105115
102960
101224
99626.7
97966.6
96155.8
94221.6
92138.8
89897.5
87479.6
84876.1
82079.3
79070.4
75821.9
72301.7
68447
64253.4
59726
54868.6
49687.3
44243.4
38652.7
33064.5
27879.7
23566.7
19700.1
16407.8
13689.2
11521.5
9824.44
8995.66
11032.1
12877.1
8906.33
74701.2
64593.1
31277.2
15311.2
9365.89
6583.51
4979.41
3911.64
3096.5
2218.09
1367.33
721.867
305.247
109.594
45.6557
24.6344
15.13
9.97431
6.7886
4.6768
3.24964
2.2867
1.63894
1.20252
0.906873
0.705447
0.56761
0.473097
0.407927
0.362761
0.331204
0.308993
0.293327
0.2824
0.274952
0.269925
0.266413
0.263615
0.261147
0.25871
0.256455
0.25428
0.250901
0.24694
0.242295
0.236876
0.230607
0.223435
0.222497
0.229743
0.236076
0.241548
0.246236
0.250232
0.25364
0.256244
0.258696
0.261137
0.263622
0.266456
0.27005
0.275137
0.282495
0.293195
0.308593
0.330546
0.361795
0.406491
0.470911
0.564322
0.700278
0.898459
1.1886
1.61578
2.24791
3.18431
4.56586
6.59916
9.60743
14.138
21.2269
33.0459
54.315
94.8271
174.118
328.301
620.896
1125.77
1811.25
2618.43
3697.94
5203.25
7246.68
9953.78
13574.1
18488.3
24089.6
27566.8
30344.9
32972
35718.1
38498.7
41315.7
44141.3
46944.4
49694.6
52362.2
54919.1
57334.9
59612.3
61739.9
63715.7
65542.9
67227.3
68773.6
70190.5
71485.5
72667
73735.1
74687.8
75513.1
76189.9
76689.7
76976.1
77000.8
76767.2
76199.4
75256.9
73836.6
71778.8
68753.7
64184.7
57483.1
48283.3
36746
23634.4
11450
3636.69
2951.98
2776.91
2848.6
3024.49
3263.14
3452.23
3624.44
3737.14
3723.43
3577.59
3183.22
2705.35
2250.8
1847.24
1499.45
1220.9
1017.07
871.225
766.377
693.701
647.239
623.388
620.707
655.949
757.51
971.185
1343.45
1861.11
2484.79
3303.7
4467.03
6142.16
8484.77
11586.6
15550.9
20779.4
27810
37353.4
50521.2
69464
95719.6
126742
153298
165626
161785
147802
130534
114917
102624
93431.4
86729.1
81803.4
78013.5
75069.9
72713.1
70718
68896.4
67119.4
65367.9
63601.8
61787.2
59906.5
57944.3
55888.7
53724.4
51432.9
48994
46366.3
43548.9
40553
37388
34056.3
30585.7
27030.8
23463.1
20115.8
17173.7
14490.3
12159.8
10200.9
8613.67
7363.01
6832.81
8592.9
9617.38
6533.09
51699.5
56470.9
32902.9
16937
9997.57
6821.53
5078.36
3958.94
3124.75
2247.02
1393.04
739.883
316.566
113.686
46.6088
24.8635
15.1975
9.99905
6.79983
4.68248
3.25264
2.28831
1.63982
1.20301
0.907154
0.705612
0.56771
0.473155
0.407961
0.362786
0.331223
0.309002
0.293326
0.282392
0.274946
0.269924
0.266412
0.263615
0.261147
0.25871
0.256456
0.254283
0.250904
0.246944
0.242299
0.23688
0.230611
0.22344
0.222332
0.229592
0.235935
0.241416
0.246112
0.250114
0.253526
0.256206
0.258693
0.261135
0.263622
0.266463
0.270069
0.275149
0.282488
0.293159
0.308528
0.330455
0.361673
0.406319
0.470664
0.563959
0.699734
0.897658
1.18746
1.61416
2.24555
3.1806
4.55953
6.58764
9.58545
14.0939
21.132
32.8234
53.7501
93.2923
169.477
312.464
567.695
986.6
1583.68
2363.27
3423.92
4864.4
6738.11
9058.36
11827.5
14989.3
17672.3
20077.4
21951.2
23752
25623.8
27537.6
29488.5
31458.6
33425.6
35366.9
37257.7
39074.8
40799.7
42436.3
43975
45414.6
46757.2
48007.5
49170.1
50252.4
51260.1
52197.6
53064.4
53855.4
54561.5
55164.9
55638.1
55948.3
56063.9
55970.2
55560.6
54760.9
53362.6
51043.3
47339.4
41848.6
34596
25610.3
16164.1
8013.82
3399.56
2150.8
2181.45
2272.13
2386.08
2513.86
2633.73
2696.03
2709.9
2612.61
2356.47
2003.46
1667.85
1374.39
1123.59
911.262
743.113
619.337
527.429
459.47
410.42
376.448
354.69
343.225
341.218
348.832
384.941
462.62
614.669
872.29
1231.51
1665.13
2240.75
3079.27
4297.82
6027.99
8392.54
11340.9
15135.2
20115.3
26709.9
35554.6
47832.5
65000.1
86836.5
108172
121949
123800
116118
103871
91320.2
80756.2
72570.3
66390
61657.2
57993.7
55091.2
52718.9
50688
48851.9
47151.8
45535.8
43958.5
42395.8
40828
39240.3
37618.6
35948.9
34217.5
32398
30487.7
28494.6
26426
24280.4
22064.6
19796.1
17499.3
15273
13185.7
11263.9
9551.56
8081.66
6865.29
5895.31
5495.73
6939.83
7197.3
5557.22
31390.2
48128.7
33667.6
18826.7
10936.1
7197.64
5232.7
4029.38
3164.14
2284.98
1426.75
762.72
330.286
118.821
47.829
25.1525
15.2832
10.0307
6.81419
4.68972
3.25645
2.29032
1.6409
1.20361
0.907487
0.705804
0.567823
0.473221
0.408
0.362814
0.331243
0.309012
0.293325
0.282384
0.27494
0.269923
0.266412
0.263615
0.261147
0.25871
0.256457
0.254286
0.250907
0.246947
0.242302
0.236884
0.230615
0.223444
0.222174
0.229446
0.235799
0.241289
0.245992
0.25
0.253417
0.25617
0.25869
0.261132
0.263622
0.266468
0.270086
0.275159
0.282479
0.293121
0.30846
0.33036
0.361547
0.406143
0.470416
0.563604
0.699218
0.896918
1.1864
1.61261
2.2431
3.17641
4.55196
6.57348
9.5581
14.0387
21.0125
32.5431
53.045
91.4587
164.613
299.115
531.023
899.519
1433.83
2165.69
3161.63
4479.65
6127.9
8043.85
10097.1
12075.6
13295.5
15040.2
16369.8
17661
18965.4
20299.6
21657.7
23034
24414
25782.4
27121.8
28417
29657.9
30843.8
31968.2
33030.2
34031.4
34975.4
35866.7
36710.9
37512.1
38271
38983.7
39643.3
40241.9
40763.1
41176.1
41445.1
41540
41398.4
40864.8
39777.7
37766
34542.7
30071.3
24082.6
17127.6
10334.5
4929.44
2348.07
1727.34
1728.47
1792.73
1860.38
1923.93
1974.22
1973.46
1894.92
1761.14
1497.19
1245.73
1029.11
847.147
694.347
566.248
465.252
389.462
331.893
288.908
257.483
235.054
219.868
210.51
205.889
205.473
209.122
221.091
247.913
302.002
405.891
581.817
831.098
1138.03
1549.74
2162.13
3063.76
4362.63
6170.61
8376.11
11142.1
14681.8
19256.2
25220.3
33159.8
44220.6
58854.4
75080.3
88023.6
93328.3
90660.6
83013
73629.7
64898.6
57753.9
52137.8
47764.4
44324.2
41568.9
39296.4
37345.5
35624.5
34066.6
32617.4
31244
29921.4
28631.2
27358.5
26090.5
24816
23517
22188.3
20832.7
19453.5
18046.5
16608.6
15138.6
13636.4
12132.2
10637.1
9214.85
7908.16
6765.97
5797.61
5013.75
4653.28
5751.88
5564.36
5074.09
12309.3
38478.4
33489.4
20870.3
12276.5
7800.72
5484.43
4139.94
3221.5
2335.46
1471.28
792.465
347.476
125.453
49.4441
25.5293
15.3942
10.0718
6.8328
4.69906
3.26132
2.29289
1.64227
1.20435
0.907895
0.706033
0.567956
0.473298
0.408045
0.362845
0.331265
0.309022
0.293325
0.282377
0.274935
0.269923
0.266412
0.263615
0.261147
0.25871
0.256458
0.254288
0.25091
0.24695
0.242306
0.236887
0.230619
0.223448
0.222034
0.229317
0.235679
0.241177
0.245885
0.249898
0.253319
0.256137
0.258688
0.26113
0.263622
0.266472
0.270101
0.275166
0.282468
0.293083
0.308394
0.330269
0.361424
0.405974
0.470181
0.563271
0.698739
0.896225
1.18537
1.61097
2.24029
3.17135
4.54256
6.55566
9.52346
13.9684
20.8602
32.1855
52.1489
89.1616
158.833
285.104
498.621
831.524
1313.57
1978.58
2870.55
4017.97
5396.57
6900.03
8343.4
9488.14
9964.88
11291.2
12373.1
13407.1
14396.6
15378.1
16354.8
17334.2
18312.7
19284.1
20239.7
21171.1
22072.5
22941.2
23773.2
24567.8
25326.2
26051
26745.7
27415
28061.3
28682.3
29268.7
29809.3
30293.5
30703.9
31000.4
31123
31012
30535.4
29438.8
27545.8
24761.8
20843.5
15954.8
10721.1
6002.91
2855.1
1544.36
1334.98
1352.6
1384.3
1415.95
1439.8
1443.42
1408.14
1310.59
1122.85
936.837
776.856
643
532.284
440.249
363.196
302.531
256.107
219.792
193.44
174.457
160.801
151.163
144.66
140.845
139.378
140.121
143.076
148.363
159.881
179.756
216.881
286.836
406.312
580.352
800.242
1097.55
1549.59
2224.52
3206.43
4563.67
6218.97
8242.66
10760.6
13925
17927.1
23108.2
30174
39687.4
51206
61913.8
68710.9
69696.7
65920
59696.9
52961.4
46936.3
41982.8
38017.1
34850.5
32289.1
30163.8
28358
26787.2
25386.6
24112.8
22933.9
21826.6
20773.2
19759.7
18774.9
17804.4
16841.3
15884
14932.2
13981
13023.8
12052.5
11057
10037.6
8979.23
7918.87
6905.52
5991.26
5193.77
4539.43
4170.47
4884.42
4562.27
4553.53
6585.78
26142.4
31173.6
22745.4
14074.3
8765.09
5912.97
4325.24
3310.54
2404.25
1530.53
832.057
369.699
134.252
51.6512
26.0368
15.5411
10.126
6.85718
4.71125
3.26765
2.29619
1.64401
1.20528
0.908403
0.706316
0.568117
0.473389
0.408099
0.362881
0.331289
0.309034
0.293327
0.282372
0.274931
0.269923
0.266412
0.263615
0.261147
0.25871
0.256459
0.254291
0.250913
0.246952
0.242308
0.23689
0.230622
0.223451
0.221922
0.229213
0.235583
0.241086
0.2458
0.249817
0.253241
0.256111
0.258685
0.261127
0.263621
0.266474
0.270111
0.275169
0.282456
0.293049
0.308335
0.330186