/*--------------------------------*- C++ -*----------------------------------*\
| =========                 |                                                 |
| \\      /  F ield         | OpenFOAM: The Open Source CFD Toolbox           |
|  \\    /   O peration     | Version:  2112                                  |
|   \\  /    A nd           | Website:  www.openfoam.com                      |
|    \\/     M anipulation  |                                                 |
\*---------------------------------------------------------------------------*/
FoamFile
{
    version     2.0;
    format      ascii;
    arch        "LSB;label=32;scalar=64";
    class       volScalarField;
    location    "602";
    object      p;
}
// * * * * * * * * * * * * * * * * * * * * * * * * * * * * * * * * * * * * * //

dimensions      [0 2 -2 0 0 0 0];

internalField   nonuniform List<scalar> 
14336
(
0.0314817
0.0439684
0.0929019
0.131673
0.178273
0.230242
0.29221
0.367273
0.461119
0.578776
0.720594
0.885071
1.08089
1.32538
1.63561
2.02707
2.50461
3.11233
3.84401
4.74047
5.84269
7.20505
8.87657
10.9205
13.4259
16.483
20.2072
24.7189
30.1401
36.596
44.2264
53.1698
63.5339
75.3945
88.8201
103.891
120.661
139.016
158.772
179.733
200.94
219.442
230.674
231.004
221.371
206.878
191.318
187.995
159.544
158.441
157.834
154.469
150.897
146.912
142.818
138.747
134.839
131.222
128.013
125.328
123.273
121.953
121.467
121.9
123.33
125.827
129.465
134.329
140.53
148.23
157.653
169.108
183.001
199.827
220.125
244.45
273.359
307.359
346.864
392.179
443.459
500.717
563.811
632.482
706.224
784.35
865.976
949.791
1033.91
1115.98
1192.84
1260.17
1311.71
1338.21
1330.2
1276.78
1162.28
972.177
693.202
318.058
-149.97
-694.737
-1288.46
-1896.97
-2487.57
-3035.24
-3525.49
-3953.06
-4319.01
-4626.84
-4884.98
-5086.5
-5327.62
-5501.3
-5746.92
-6031.81
-6322.51
-6618.24
-6909.8
-7174.38
-7383.53
-7508.72
-7526.67
-7425.14
-7208.38
-6895.3
-6513.86
-6093.63
-5660.18
-5232.88
-4823.77
-4438.98
-4082.06
-3753.82
-3453.33
-3178.75
-2927.63
-2697.51
-2486.05
-2291.06
-2110.47
-1942.45
-1785.44
-1638.14
-1499.61
-1369.07
-1245.96
-1129.93
-1020.72
-918.142
-822.039
-732.15
-648.165
-569.687
-496.219
-427.225
-362.171
-300.563
-241.98
-186.116
-132.875
-82.4304
-35.2418
7.95553
46.301
79.0196
105.684
126.481
142.118
153.537
161.687
167.423
171.572
171.787
172.555
173.487
188.019
191.406
206.954
221.398
230.963
230.581
219.348
200.884
179.713
158.77
139.017
120.663
103.893
88.822
75.3963
63.5357
53.1716
44.2282
36.5981
30.1425
24.7221
20.2113
16.486
13.4255
10.9189
8.87607
7.20563
5.8438
4.74134
3.84459
3.11282
2.51201
2.0368
1.64489
1.3245
1.06127
0.854721
0.697485
0.571261
0.463988
0.372441
0.296147
0.233089
0.180724
0.133823
0.0945597
0.0448234
0.0310911
0.0318332
0.043197
0.0914071
0.129735
0.176065
0.227677
0.288665
0.362621
0.458548
0.585574
0.74145
0.912442
1.09858
1.3262
1.6273
2.01839
2.50013
3.11182
3.84349
4.73976
5.8421
7.2048
8.87725
10.9225
13.4268
16.4809
20.2042
24.7167
30.1386
36.595
44.2256
53.1694
63.5337
75.3945
88.8205
103.892
120.663
139.019
158.779
179.753
200.986
219.51
230.735
231.021
221.342
206.824
191.243
187.928
159.556
158.441
157.836
154.471
150.899
146.913
142.819
138.748
134.84
131.222
128.014
125.328
123.273
121.953
121.467
121.9
123.329
125.827
129.465
134.329
140.53
148.23
157.653
169.108
183.002
199.827
220.125
244.451
273.36
307.36
346.867
392.182
443.463
500.722
563.819
632.492
706.235
784.364
865.993
949.811
1033.94
1116.01
1192.86
1260.19
1311.73
1338.21
1330.18
1276.71
1162.14
971.932
692.818
317.503
-150.71
-695.648
-1289.49
-1898.04
-2488.58
-3036.1
-3526.13
-3953.45
-4319.1
-4626.63
-4884.45
-5085.61
-5325.76
-5499.8
-5745.54
-6030.57
-6321.38
-6617.21
-6908.91
-7173.68
-7383.04
-7508.46
-7526.66
-7425.33
-7208.72
-6895.72
-6514.31
-6094.05
-5660.55
-5233.2
-4824.03
-4439.19
-4082.23
-3753.95
-3453.43
-3178.83
-2927.69
-2697.55
-2486.09
-2291.09
-2110.49
-1942.47
-1785.45
-1638.15
-1499.62
-1369.08
-1245.97
-1129.94
-1020.72
-918.144
-822.04
-732.15
-648.164
-569.686
-496.218
-427.224
-362.169
-300.56
-241.977
-186.112
-132.871
-82.4256
-35.2366
7.96115
46.3067
79.0252
105.689
126.486
142.122
153.541
161.69
167.425
171.574
171.787
172.556
173.465
187.996
191.444
206.97
221.404
230.941
230.527
219.293
200.853
179.705
158.772
139.021
120.666
103.895
88.824
75.398
63.537
53.1727
44.2294
36.5994
30.1441
24.7243
20.2143
16.4881
13.4246
10.9175
8.87552
7.20655
5.84571
4.74224
3.84509
3.11332
2.51985
2.04549
1.65321
1.32368
1.04356
0.827327
0.676612
0.564458
0.466562
0.377098
0.299695
0.235656
0.182933
0.135762
0.0960556
0.0455953
0.0307393
0.0320954
0.0426159
0.0902837
0.128281
0.17441
0.225755
0.286009
0.359142
0.456652
0.590731
0.757151
0.932994
1.11184
1.3268
1.6211
2.01195
2.49829
3.11128
3.84304
4.7392
5.84167
7.20458
8.87807
10.925
13.4282
16.4801
20.2027
24.7158
30.1383
36.5949
44.2257
53.1696
63.534
75.3948
88.821
103.893
120.664
139.02
158.782
179.761
201.001
219.53
230.745
231.012
221.328
206.821
191.2
187.866
159.559
158.442
157.836
154.472
150.899
146.914
142.819
138.748
134.84
131.222
128.014
125.328
123.273
121.953
121.467
121.9
123.329
125.827
129.465
134.328
140.53
148.23
157.653
169.108
183.002
199.827
220.126
244.451
273.36
307.361
346.867
392.183
443.465
500.724
563.821
632.494
706.238
784.368
865.998
949.816
1033.94
1116.01
1192.87
1260.2
1311.73
1338.21
1330.17
1276.69
1162.1
971.881
692.749
317.433
-150.731
-695.53
-1289.1
-1897.23
-2487.19
-3034
-3523.17
-3949.45
-4313.79
-4619.64
-4875.44
-5074.68
-5314.18
-5491.18
-5738.54
-6024.83
-6316.7
-6613.41
-6905.88
-7171.31
-7381.26
-7507.2
-7525.82
-7424.82
-7208.45
-6895.61
-6514.3
-6094.1
-5660.63
-5233.28
-4824.11
-4439.25
-4082.28
-3753.99
-3453.47
-3178.85
-2927.71
-2697.57
-2486.1
-2291.1
-2110.5
-1942.48
-1785.46
-1638.16
-1499.62
-1369.08
-1245.97
-1129.94
-1020.72
-918.144
-822.04
-732.15
-648.164
-569.686
-496.217
-427.223
-362.168
-300.559
-241.976
-186.111
-132.87
-82.4243
-35.2351
7.96263
46.3082
79.0266
105.69
126.487
142.123
153.541
161.691
167.426
171.574
171.788
172.554
173.434
187.965
191.463
206.959
221.411
230.949
230.521
219.278
200.84
179.699
158.771
139.02
120.665
103.894
88.8231
75.3971
63.5362
53.1721
44.2289
36.5992
30.1442
24.725
20.2157
16.4888
13.4232
10.916
8.87466
7.20759
5.84812
4.74319
3.84547
3.11393
2.52595
2.05193
1.65941
1.32308
1.0303
0.806763
0.660901
0.559297
0.468458
0.380578
0.302352
0.237578
0.184589
0.137217
0.0971794
0.0461767
0.030477
0.0322868
0.0421889
0.0894595
0.127215
0.173197
0.224347
0.284063
0.356598
0.455277
0.594533
0.768675
0.94805
1.12153
1.32722
1.61654
2.00723
2.49744
3.11066
3.84259
4.73866
5.84117
7.20423
8.87903
10.9276
13.4293
16.4795
20.2017
24.7153
30.1381
36.595
44.2259
53.17
63.5344
75.3954
88.8216
103.893
120.664
139.02
158.783
179.764
201.008
219.538
230.745
230.998
221.307
206.804
191.126
187.792
159.558
158.442
157.836
154.472
150.899
146.914
142.819
138.748
134.84
131.223
128.014
125.328
123.273
121.953
121.467
121.9
123.329
125.827
129.465
134.328
140.53
148.23
157.653
169.108
183.002
199.827
220.126
244.451
273.36
307.361
346.868
392.183
443.465
500.724
563.821
632.495
706.239
784.368
865.998
949.817
1033.94
1116.01
1192.87
1260.2
1311.73
1338.21
1330.17
1276.69
1162.11
971.904
692.844
317.714
-150.059
-694.15
-1286.59
-1893.06
-2480.79
-3024.68
-3510.14
-3931.71
-4290.17
-4589.01
-4837.19
-5032.13
-5264.6
-5452.42
-5705.53
-5997.33
-6294.63
-6595.92
-6892.18
-7160.85
-7373.56
-7501.79
-7522.19
-7422.49
-7207.01
-6894.75
-6513.8
-6093.81
-5660.46
-5233.18
-4824.06
-4439.23
-4082.28
-3753.99
-3453.47
-3178.86
-2927.72
-2697.57
-2486.11
-2291.1
-2110.5
-1942.48
-1785.46
-1638.16
-1499.62
-1369.08
-1245.97
-1129.94
-1020.72
-918.144
-822.04
-732.15
-648.164
-569.686
-496.217
-427.223
-362.168
-300.559
-241.976
-186.111
-132.87
-82.4242
-35.2351
7.96266
46.3082
79.0266
105.69
126.487
142.123
153.541
161.691
167.426
171.574
171.788
172.546
173.386
187.964
191.509
206.967
221.426
230.965
230.524
219.272
200.834
179.696
158.769
139.019
120.663
103.893
88.8215
75.3957
63.535
53.1711
44.2281
36.5987
30.144
24.7252
20.2165
16.4892
13.4219
10.9144
8.87341
7.20868
5.85052
4.74436
3.84584
3.11488
2.53047
2.05664
1.66397
1.32266
1.02061
0.791711
0.64938
0.555495
0.469832
0.38312
0.304296
0.238985
0.185801
0.138282
0.098003
0.0466034
0.0302858
0.0324326
0.0418659
0.0888353
0.126407
0.172277
0.223279
0.282587
0.354665
0.454223
0.597396
0.777394
0.959462
1.12889
1.32755
1.6131
2.00366
2.49681
3.1099
3.84208
4.73808
5.84055
7.20376
8.88023
10.9301
13.4302
16.4792
20.2009
24.715
30.1382
36.5952
44.2264
53.1706
63.5353
75.3964
88.8226
103.894
120.665
139.021
158.784
179.766
201.011
219.539
230.737
230.975
221.274
206.771
191.027
187.748
159.554
158.443
157.836
154.472
150.9
146.914
142.82
138.749
134.84
131.223
128.014
125.328
123.273
121.953
121.467
121.9
123.329
125.827
129.465
134.329
140.53
148.23
157.653
169.108
183.002
199.828
220.126
244.451
273.361
307.361
346.868
392.183
443.466
500.725
563.822
632.496
706.24
784.37
866
949.818
1033.94
1116.02
1192.87
1260.2
1311.73
1338.21
1330.16
1276.69
1162.13
972.02
693.207
318.633
-148.051
-690.245
-1279.7
-1881.9
-2463.94
-3000.78
-3477.92
-3890.09
-4238.34
-4526.46
-4763.89
-4954.98
-5172.18
-5378.13
-5637.28
-5934.82
-6240.32
-6550
-6854.48
-7131.07
-7351.1
-7485.73
-7511.38
-7415.62
-7202.84
-6892.29
-6512.37
-6092.97
-5659.97
-5232.9
-4823.9
-4439.13
-4082.22
-3753.96
-3453.45
-3178.85
-2927.71
-2697.57
-2486.1
-2291.1
-2110.5
-1942.48
-1785.46
-1638.16
-1499.62
-1369.08
-1245.97
-1129.94
-1020.72
-918.144
-822.04
-732.15
-648.164
-569.686
-496.217
-427.223
-362.167
-300.559
-241.976
-186.111
-132.87
-82.4238
-35.2347
7.96309
46.3086
79.027
105.691
126.487
142.124
153.542
161.691
167.426
171.574
171.789
172.526
173.297
188.004
191.579
206.993
221.452
230.987
230.534
219.272
200.832
179.695
158.768
139.018
120.662
103.891
88.8199
75.3942
63.5337
53.17
44.2273
36.5981
30.1437
24.7253
20.217
16.4894
13.4209
10.9125
8.87181
7.20965
5.8525
4.74567
3.84627
3.1162
2.5339
2.06021
1.66741
1.32232
1.01325
0.780303
0.640664
0.552633
0.470885
0.385051
0.305771
0.240052
0.18672
0.13909
0.0986266
0.046926
0.0301402
0.0325448
0.0416188
0.088357
0.125787
0.171572
0.22246
0.281455
0.353182
0.45341
0.599581
0.784068
0.968209
1.13454
1.32782
1.61046
2.00092
2.49614
3.10905
3.84153
4.73749
5.83985
7.20324
8.88161
10.9321
13.4309
16.479
20.2005
24.7149
30.1384
36.5958
44.2272
53.1717
63.5365
75.3979
88.8242
103.896
120.667
139.022
158.784
179.766
201.009
219.532
230.717
230.94
221.228
206.724
190.915
187.755
159.55
158.447
157.836
154.473
150.9
146.914
142.82
138.749
134.841
131.223
128.014
125.329
123.273
121.953
121.467
121.9
123.33
125.827
129.465
134.329
140.53
148.23
157.653
169.109
183.002
199.828
220.126
244.452
273.361
307.362
346.869
392.185
443.467
500.727
563.824
632.498
706.243
784.374
866.004
949.823
1033.95
1116.02
1192.87
1260.2
1311.73
1338.2
1330.16
1276.7
1162.22
972.346
694.106
320.734
-143.725
-682.248
-1266.26
-1861.15
-2434.15
-2960.48
-3425.92
-3825.27
-4159.53
-4432.37
-4652.8
-4833.41
-5038.87
-5264.96
-5531.65
-5833.7
-6147.77
-6467.16
-6782.15
-7070.23
-7302.44
-7449.14
-7485.74
-7398.91
-7192.66
-6886.39
-6509.02
-6091.07
-5658.87
-5232.26
-4823.52
-4438.9
-4082.07
-3753.87
-3453.39
-3178.81
-2927.69
-2697.56
-2486.09
-2291.09
-2110.5
-1942.48
-1785.45
-1638.16
-1499.62
-1369.08
-1245.97
-1129.94
-1020.72
-918.144
-822.039
-732.15
-648.164
-569.686
-496.217
-427.222
-362.167
-300.559
-241.975
-186.11
-132.869
-82.423
-35.2338
7.964
46.3095
79.0278
105.692
126.488
142.124
153.542
161.691
167.426
171.575
171.791
172.489
173.103
188.081
191.669
207.034
221.488
231.021
230.556
219.282
200.836
179.696
158.768
139.017
120.66
103.889
88.8177
75.3922
63.5319
53.1685
44.2261
36.5972
30.1431
24.7251
20.2173
16.4894
13.4201
10.9106
8.87024
7.21042
5.85399
4.74679
3.84683
3.11759
2.53652
2.06294
1.67003
1.32205
1.0076
0.771556
0.633992
0.550448
0.471697
0.386534
0.306902
0.240871
0.187425
0.139709
0.0991043
0.0471728
0.0300282
0.0326306
0.0414296
0.0879908
0.125313
0.171032
0.221833
0.280589
0.352047
0.452789
0.601254
0.789176
0.974904
1.13887
1.32803
1.60845
1.99883
2.49534
3.10818
3.84099
4.73692
5.83911
7.20275
8.88294
10.9336
13.4316
16.479
20.2004
24.7151
30.139
36.5967
44.2284
53.1732
63.5384
75.4
88.8267
103.898
120.669
139.024
158.784
179.763
201.002
219.514
230.682
230.886
221.165
206.664
190.803
187.81
159.556
158.457
157.837
154.474
150.901
146.915
142.821
138.75
134.841
131.224
128.015
125.329
123.274
121.954
121.467
121.9
123.33
125.828
129.465
134.329
140.531
148.231
157.654
169.109
183.003
199.829
220.127
244.453
273.363
307.364
346.871
392.187
443.47
500.73
563.829
632.504
706.249
784.381
866.013
949.833
1033.96
1116.03
1192.89
1260.21
1311.74
1338.2
1330.16
1276.74
1162.43
973.004
695.785
324.427
-136.504
-669.469
-1245.52
-1829.89
-2389.89
-2900.89
-3348.71
-3728.08
-4039.88
-4287.56
-4482.74
-4654.3
-4860.26
-5101.61
-5378.79
-5687.8
-6012.35
-6343.28
-6670.4
-6972
-7219.32
-7382.38
-7435.56
-7364.11
-7170.44
-6873.22
-6501.63
-6087.01
-5656.62
-5230.97
-4822.75
-4438.44
-4081.78
-3753.68
-3453.27
-3178.73
-2927.63
-2697.52
-2486.07
-2291.07
-2110.48
-1942.47
-1785.45
-1638.15
-1499.62
-1369.07
-1245.97
-1129.93
-1020.72
-918.143
-822.039
-732.149
-648.163
-569.685
-496.216
-427.221
-362.166
-300.558
-241.974
-186.109
-132.868
-82.422
-35.2327
7.96516
46.3107
79.0291
105.693
126.489
142.125
153.543
161.692
167.427
171.575
171.794
172.429
172.697
188.178
191.783
207.091
221.541
231.07
230.591
219.302
200.847
179.7
158.769
139.016
120.657
103.886
88.8148
75.3895
63.5295
53.1665
44.2245
36.596
30.1423
24.7247
20.2172
16.4893
13.4193
10.909
8.86889
7.21098
5.8551
4.7476
3.84741
3.11873
2.53851
2.06503
1.67204
1.32184
1.00327
0.764862
0.628884
0.548776
0.472319
0.387668
0.307768
0.241497
0.187965
0.140182
0.09947
0.0473617
0.0299424
0.0326963
0.0412847
0.0877105
0.12495
0.170619
0.221353
0.279926
0.351179
0.452314
0.602536
0.793087
0.980026
1.14217
1.32819
1.60692
1.99724
2.4944
3.10738
3.84054
4.73641
5.83843
7.20235
8.88406
10.9348
13.4323
16.4792
20.2006
24.7157
30.14
36.598
44.2302
53.1754
63.5411
75.4031
88.8301
103.902
120.672
139.026
158.783
179.758
200.987
219.482
230.627
230.807
221.08
206.588
190.704
187.887
159.59
158.476
157.839
154.476
150.903
146.917
142.823
138.752
134.843
131.225
128.016
125.33
123.275
121.955
121.468
121.901
123.331
125.829
129.466
134.33
140.532
148.232
157.655
169.11
183.004
199.83
220.129
244.455
273.366
307.367
346.875
392.192
443.476
500.737
563.837
632.513
706.261
784.395
866.03
949.853
1033.98
1116.06
1192.91
1260.23
1311.74
1338.19
1330.16
1276.82
1162.78
974.07
698.39
329.978
-125.859
-650.802
-1215.27
-1784.21
-2324.97
-2813.21
-3235.04
-3585.27
-3864.31
-4076.88
-4246.96
-4421.86
-4635.57
-4885.6
-5169.93
-5487.14
-5824.46
-6170.06
-6512.64
-6831.22
-7097.24
-7280.34
-7354.33
-7303.44
-7128.52
-6846.64
-6486.06
-6078.41
-5651.99
-5228.43
-4821.3
-4437.57
-4081.24
-3753.33
-3453.04
-3178.57
-2927.53
-2697.44
-2486.01
-2291.03
-2110.46
-1942.44
-1785.43
-1638.14
-1499.61
-1369.07
-1245.96
-1129.93
-1020.72
-918.14
-822.036
-732.147
-648.162
-569.684
-496.215
-427.22
-362.165
-300.557
-241.973
-186.108
-132.867
-82.4207
-35.2313
7.96661
46.3123
79.0309
105.695
126.491
142.127
153.544
161.693
167.428
171.578
171.804
172.339
172.09
188.268
191.925
207.171
221.617
231.142
230.646
219.335
200.864
179.708
158.77
139.013
120.654
103.882
88.8109
75.3859
63.5264
53.1639
44.2223
36.5943
30.141
24.7239
20.2168
16.4889
13.4186
10.9077
8.86777
7.21135
5.8559
4.74817
3.84787
3.1196
2.54002
2.06662
1.67358
1.32168
0.999963
0.759741
0.624974
0.547494
0.472793
0.388535
0.308429
0.241976
0.188377
0.140545
0.0997498
0.0475064
0.0298769
0.0327467
0.0411734
0.0874954
0.124671
0.170302
0.220985
0.279417
0.350514
0.45195
0.603519
0.796086
0.983955
1.14471
1.32831
1.60574
1.99602
2.49341
3.10673
3.84022
4.736
5.83787
7.2021
8.88501
10.9359
13.433
16.4796
20.2011
24.7166
30.1414
36.5999
44.2326
53.1784
63.5447
75.4074
88.8348
103.907
120.677
139.028
158.782
179.749
200.964
219.433
230.544
230.696
220.966
206.492
190.634
187.943
159.68
158.513
157.845
154.482
150.908
146.922
142.826
138.755
134.846
131.228
128.019
125.333
123.277
121.957
121.47
121.903
123.333
125.83
129.468
134.332
140.533
148.234
157.657
169.113
183.007
199.834
220.133
244.46
273.371
307.374
346.883
392.201
443.487
500.751
563.853
632.533
706.284
784.422
866.063
949.893
1034.03
1116.11
1192.96
1260.27
1311.75
1338.18
1330.16
1276.94
1163.31
975.625
702.153
337.981
-110.497
-623.841
-1171.63
-1718.5
-2232.04
-2688.37
-3073.89
-3382.64
-3614.68
-3787.78
-3948.65
-4136.18
-4359.61
-4615.07
-4902.24
-5223.82
-5572.58
-5935.09
-6297.09
-6637.65
-6928.08
-7137.27
-7237.85
-7212.75
-7061.64
-6800.55
-6456.71
-6061.15
-5642.45
-5223.3
-4818.51
-4435.97
-4080.27
-3752.73
-3452.64
-3178.31
-2927.34
-2697.31
-2485.92
-2290.97
-2110.41
-1942.41
-1785.4
-1638.12
-1499.59
-1369.06
-1245.95
-1129.92
-1020.71
-918.135
-822.032
-732.144
-648.159
-569.681
-496.213
-427.219
-362.164
-300.555
-241.972
-186.106
-132.865
-82.4188
-35.2292
7.96896
46.3149
79.034
105.698
126.494
142.13
153.548
161.696
167.432
171.586
171.826
172.212
171.491
188.317
192.094
207.277
221.725
231.242
230.724
219.385
200.891
179.719
158.772
139.01
120.649
103.876
88.8056
75.3811
63.5222
53.1604
44.2195
36.5921
30.1394
24.7228
20.2162
16.4884
13.4177
10.9065
8.86678
7.21156
5.85647
4.74857
3.8482
3.12024
2.54117
2.06783
1.67475
1.32156
0.997425
0.755813
0.621976
0.546511
0.473156
0.3892
0.308937
0.242343
0.188693
0.140822
0.0999644
0.0476173
0.0298267
0.0327855
0.0410878
0.0873298
0.124457
0.170058
0.220702
0.279026
0.350002
0.451671
0.604277
0.798394
0.986977
1.14667
1.32841
1.60485
1.9951
2.49252
3.10624
3.83999
4.73572
5.83747
7.202
8.88587
10.9369
13.4338
16.4803
20.2019
24.718
30.1433
36.6025
44.236
53.1826
63.5497
75.4132
88.8414
103.914
120.683
139.032
158.78
179.736
200.929
219.361
230.425
230.541
220.814
206.369
190.617
187.908
159.864
158.576
157.854
154.492
150.916
146.929
142.833
138.761
134.851
131.233
128.023
125.337
123.281
121.961
121.474
121.906
123.336
125.834
129.471
134.335
140.537
148.238
157.662
169.118
183.012
199.84
220.14
244.468
273.381
307.386
346.897
392.218
443.507
500.775
563.882
632.568
706.327
784.474
866.126
949.968
1034.11
1116.2
1193.04
1260.32
1311.77
1338.15
1330.14
1277.1
1164.05
977.832
707.528
349.429
-88.5679
-585.541
-1110.03
-1626.39
-2102.61
-2515.41
-2850.21
-3099.87
-3278.67
-3432.82
-3604.25
-3805.85
-4036.84
-4295.73
-4582.96
-4902.81
-5254.28
-5629.21
-6011.77
-6378.32
-6699.28
-6942.27
-7077.93
-7086.79
-6966.36
-6731.5
-6409.22
-6030.59
-5624.18
-5213.05
-4812.94
-4432.93
-4078.54
-3751.67
-3451.97
-3177.86
-2927.04
-2697.1
-2485.77
-2290.86
-2110.32
-1942.34
-1785.36
-1638.08
-1499.57
-1369.03
-1245.93
-1129.91
-1020.7
-918.127
-822.025
-732.138
-648.154
-569.677
-496.209
-427.215
-362.161
-300.552
-241.969
-186.103
-132.862
-82.4154
-35.2254
7.9734
46.3201
79.0403
105.705
126.501
142.137
153.555
161.704
167.44
171.603
171.865
172.033
170.93
188.256
192.285
207.419
221.878
231.384
230.835
219.456
200.929
179.735
158.775
139.006
120.642
103.869
88.7986
75.3748
63.5167
53.1558
44.2158
36.5891
30.1371
24.7212
20.2151
16.4875
13.4168
10.9054
8.86588
7.21162
5.85683
4.74883
3.8484
3.12072
2.54205
2.06875
1.67564
1.32146
0.99547
0.752792
0.61967
0.545754
0.473435
0.389711
0.309327
0.242626
0.188937
0.141036
0.100129
0.0477026
0.029788
0.0328155
0.0410217
0.0872019
0.124292
0.169869
0.220484
0.278725
0.349607
0.451456
0.604862
0.800176
0.989312
1.14818
1.32849
1.60416
1.99439
2.49184
3.10589
3.83986
4.73556
5.83725
7.20204
8.88671
10.938
13.4348
16.4814
20.2033
24.7199
30.146
36.6061
44.2405
53.1882
63.5566
75.4212
88.8503
103.923
120.691
139.037
158.778
179.718
200.879
219.258
230.257
230.326
220.608
206.206
190.691
187.664
160.203
158.681
157.873
154.509
150.931
146.942
142.844
138.771
134.86
131.241
128.031
125.344
123.288
121.967
121.48
121.912
123.341
125.839
129.477
134.341
140.543
148.244
157.669
169.126
183.022
199.851
220.153
244.483
273.398
307.406
346.921
392.247
443.542
500.816
563.932
632.629
706.401
784.565
866.235
950.096
1034.25
1116.34
1193.16
1260.4
1311.78
1338.09
1330.1
1277.29
1165.07
980.942
715.133
365.594
-57.7767
-532.175
-1024.97
-1500.47
-1927.3
-2280.85
-2544.46
-2728.35
-2880.14
-3042.06
-3228.43
-3439.96
-3675.43
-3935.58
-4221.49
-4535.56
-4880.99
-5255.79
-5650.78
-6042.95
-6398.34
-6682.11
-6862.16
-6915.55
-6835.96
-6635.69
-6341.04
-5983.81
-5593.65
-5194.33
-4802.15
-4426.95
-4075.23
-3749.77
-3450.81
-3177.11
-2926.53
-2696.75
-2485.52
-2290.67
-2110.19
-1942.24
-1785.28
-1638.02
-1499.52
-1369
-1245.9
-1129.89
-1020.68
-918.112
-822.013
-732.128
-648.146
-569.67
-496.203
-427.21
-362.155
-300.547
-241.964
-186.098
-132.856
-82.4092
-35.2184
7.98156
46.3299
79.0517
105.717
126.513
142.15
153.568
161.717
167.453
171.631
171.918
171.803
170.249
187.963
192.489
207.605
222.093
231.583
230.99
219.556
200.983
179.757
158.779
139.001
120.633
103.859
88.7891
75.3663
63.5094
53.1497
44.2108
36.5853
30.1342
24.719
20.2136
16.4864
13.4157
10.9043
8.86498
7.21155
5.85703
4.74898
3.84852
3.12105
2.5427
2.06945
1.67632
1.32137
0.993958
0.750457
0.617888
0.545168
0.473649
0.390104
0.309628
0.242843
0.189124
0.141201
0.100257
0.0477684
0.0297581
0.0328388
0.0409703
0.0871027
0.124163
0.169723
0.220314
0.278491
0.349301
0.45129
0.605318
0.801561
0.99113
1.14935
1.32856
1.60364
1.99386
2.49135
3.10566
3.83981
4.7355
5.83718
7.20222
8.8876
10.9391
13.4361
16.4828
20.2052
24.7226
30.1497
36.6109
44.2466
53.1959
63.5658
75.4319
88.8623
103.936
120.703
139.045
158.775
179.693
200.809
219.114
230.023
230.031
220.325
205.988
190.903
187.035
160.784
158.851
157.905
154.538
150.954
146.962
142.863
138.788
134.876
131.255
128.044
125.356
123.299
121.977
121.489
121.921
123.35
125.848
129.486
134.35
140.553
148.254
157.68
169.139
183.036
199.868
220.173
244.507
273.426
307.44
346.961
392.295
443.599
500.886
564.016
632.731
706.526
784.716
866.413
950.294
1034.46
1116.54
1193.32
1260.48
1311.76
1337.98
1330
1277.52
1166.45
985.267
725.754
388.085
-15.2879
-459.376
-910.597
-1333.42
-1694.17
-1965.3
-2152.29
-2303.77
-2460.75
-2637.14
-2834.37
-3051.62
-3289.24
-3548.41
-3830.31
-4136.55
-4469.82
-4833.17
-5224.21
-5629.48
-6017.37
-6345.6
-6577.73
-6686.24
-6659.51
-6505.34
-6247.69
-5918.44
-5548.85
-5164.62
-4783.4
-4415.79
-4068.86
-3746.17
-3448.72
-3175.83
-2925.7
-2696.19
-2485.12
-2290.39
-2109.98
-1942.09
-1785.16
-1637.93
-1499.45
-1368.94
-1245.86
-1129.85
-1020.65
-918.089
-821.995
-732.113
-648.133
-569.659
-496.193
-427.201
-362.147
-300.539
-241.956
-186.09
-132.847
-82.3989
-35.2065
7.99528
46.3459
79.0695
105.735
126.533
142.17
153.589
161.738
167.474
171.668
171.976
171.553
169.747
187.365
192.692
207.829
222.391
231.861
231.204
219.694
201.057
179.788
158.784
138.994
120.621
103.846
88.7766
75.3551
63.4997
53.1416
44.2043
36.5801
30.1302
24.7161
20.2115
16.4848
13.4144
10.903
8.86404
7.21132
5.85707
4.74901
3.84857
3.12128
2.54318
2.06997
1.67684
1.3213
0.992782
0.748645
0.616505
0.544713
0.473815
0.390409
0.309861
0.243012
0.18927
0.141329
0.100356
0.0478195
0.0297349
0.0328571
0.0409303
0.0870252
0.124063
0.169609
0.220182
0.278308
0.349063
0.451162
0.605674
0.802643
0.992555
1.15028
1.32863
1.60325
1.99347
2.49099
3.10552
3.83983
4.73556
5.83727
7.20258
8.88861
10.9405
13.4377
16.4848
20.2079
24.7263
30.1546
36.6173
44.2549
53.2061
63.5781
75.4464
88.8785
103.953
120.719
139.055
158.771
179.659
200.714
218.916
229.702
229.624
219.931
205.703
191.291
185.836
161.719
159.119
157.961
154.585
150.991
146.995
142.892
138.814
134.9
131.277
128.064
125.374
123.316
121.993
121.505
121.936
123.365
125.862
129.5
134.365
140.568
148.271
157.699
169.16
183.06
199.895
220.205
244.545
273.471
307.493
347.025
392.372
443.692
500.999
564.154
632.898
706.728
784.952
866.678
950.575
1034.74
1116.79
1193.52
1260.57
1311.7
1337.76
1329.78
1277.74
1168.28
991.19
740.371
418.851
42.0849
-362.899
-761.573
-1114.51
-1384.24
-1571.2
-1722.9
-1877.39
-2047.24
-2233.97
-2437.07
-2656.81
-2894.02
-3149.65
-3424.78
-3720.81
-4039.63
-4383.98
-4756.99
-5155.07
-5558.27
-5927.37
-6214.9
-6386.82
-6424.57
-6329.43
-6120.89
-5829.38
-5487.21
-5122.37
-4754.95
-4397.33
-4057.44
-3739.4
-3444.78
-3173.51
-2924.27
-2695.25
-2484.49
-2289.94
-2109.65
-1941.84
-1784.97
-1637.79
-1499.34
-1368.85
-1245.79
-1129.8
-1020.61
-918.053
-821.966
-732.089
-648.112
-569.641
-496.178
-427.187
-362.134
-300.526
-241.943
-186.076
-132.832
-82.3827
-35.1883
8.016
46.3693
79.0949
105.763
126.562
142.201
153.62
161.77
167.503
171.709
172.03
171.346
170.317
186.589
192.941
208.027
222.794
232.249
231.502
219.884
201.159
179.83
158.791
138.984
120.604
103.828
88.7598
75.3401
63.4869
53.131
44.1957
36.5733
30.125
24.7122
20.2087
16.4827
13.4127
10.9016
8.86299
7.21093
5.85696
4.74894
3.84853
3.12141
2.54353
2.07036
1.67723
1.32124
0.991859
0.747228
0.615423
0.544356
0.473943
0.390647
0.310042
0.243143
0.189383
0.141429
0.100433
0.0478593
0.0297168
0.0328714
0.0408988
0.0869643
0.123984
0.16952
0.220079
0.278166
0.348877
0.451062
0.605957
0.803497
0.99368
1.15101
1.32869
1.60296
1.99319
2.49076
3.10547
3.83994
4.73573
5.83752
7.20313
8.8898
10.9421
13.4397
16.4874
20.2115
24.7313
30.1613
36.626
44.2659
53.2198
63.5947
75.4657
88.9002
103.975
120.74
139.069
158.767
179.613
200.583
218.645
229.26
229.061
219.379
205.348
191.833
183.994
163.121
159.535
158.055
154.658
151.048
147.045
142.937
138.855
134.937
131.311
128.095
125.403
123.343
122.019
121.529
121.959
123.387
125.884
129.522
134.388
140.592
148.297
157.728
169.192
183.097
199.939
220.256
244.605
273.542
307.578
347.127
392.495
443.841
501.179
564.372
633.159
707.03
785.291
867.045
950.954
1035.11
1117.12
1193.75
1260.64
1311.52
1337.34
1329.32
1277.85
1170.6
999.149
760.13
459.973
117.102
-239.099
-568.061
-825.887
-1008.57
-1159.52
-1312.05
-1476.87
-1655.31
-1846.99
-2052.14
-2271.37
-2505.34
-2754.84
-3020.81
-3304.29
-3606.91
-3930.42
-4277.34
-4650.62
-5044.96
-5433.33
-5770.8
-6008.84
-6119.84
-6096.03
-5949.95
-5708.38
-5403.34
-5064.7
-4715.37
-4370.35
-4039.43
-3727.82
-3437.64
-3169.2
-2921.66
-2693.63
-2483.42
-2289.21
-2109.13
-1941.46
-1784.69
-1637.57
-1499.17
-1368.72
-1245.69
-1129.71
-1020.54
-918
-821.922
-732.052
-648.082
-569.615
-496.154
-427.165
-362.113
-300.506
-241.923
-186.056
-132.811
-82.3593
-35.1627
8.04433
46.4001
79.1278
105.8
126.602
142.244
153.663
161.814
167.541
171.742
172.072
171.245
171.505
185.829
193.309
208.06
223.282
232.787
231.912
220.145
201.299
179.887
158.801
138.97
120.582
103.805
88.7375
75.3202
63.4699
53.1168
44.1843
36.5643
30.1181
24.707
20.2049
16.4799
13.4105
10.8999
8.86174
7.21034
5.85668
4.74875
3.84841
3.12145
2.54376
2.07064
1.67752
1.32117
0.991126
0.74611
0.614571
0.544074
0.474042
0.390832
0.310184
0.243246
0.189472
0.141507
0.100493
0.0478906
0.0297026
0.0328828
0.0408738
0.0869161
0.123922
0.16945
0.219997
0.278053
0.348731
0.450986
0.606184
0.804177
0.994577
1.1516
1.32875
1.60275
1.993
2.49062
3.10551
3.84013
4.73603
5.83797
7.20392
8.89127
10.9442
13.4424
16.491
20.2163
24.7379
30.1701
36.6375
44.2806
53.238
63.6167
75.4916
88.9292
104.006
120.768
139.087
158.76
179.55
200.406
218.276
228.656
228.284
218.606
204.937
192.373
181.675
165.016
160.173
158.215
154.774
151.136
147.122
143.006
138.918
134.995
131.364
128.144
125.448
123.385
122.058
121.566
121.994
123.422
125.918
129.557
134.423
140.63
148.338
157.772
169.242
183.155
200.005
220.334
244.697
273.653
307.711
347.287
392.688
444.074
501.458
564.701
633.537
707.453
785.754
867.535
951.452
1035.59
1117.53
1194
1260.62
1311.12
1336.52
1328.38
1277.65
1173.39
1009.57
786.087
512.877
212.075
-78.7322
-314.292
-487.707
-635.522
-784.951
-944.553
-1115.27
-1296.79
-1489.27
-1693.14
-1908.81
-2136.79
-2377.73
-2632.44
-2901.74
-3186.7
-3488.64
-3808.95
-4149.79
-4513.47
-4893.06
-5255.29
-5551.91
-5738.04
-5794.55
-5723.58
-5545.26
-5289.23
-4986.14
-4661.49
-4333.3
-4013.88
-3710.35
-3425.98
-3161.67
-2916.94
-2690.68
-2481.56
-2287.98
-2108.29
-1940.86
-1784.24
-1637.24
-1498.91
-1368.52
-1245.53
-1129.59
-1020.45
-917.921
-821.857
-731.999
-648.036
-569.576
-496.12
-427.134
-362.084
-300.478
-241.895
-186.027
-132.781
-82.3281
-35.1293
8.0799
46.4376
79.167
105.842
126.648
142.294
153.715
161.867
167.583
171.743
172.103
171.268
172.435
185.566
193.305
207.798
223.705
233.498
232.477
220.5
201.488
179.964
158.813
138.952
120.553
103.773
88.7077
75.2937
63.4473
53.0981
44.1692
36.5525
30.109
24.7002
20.1999
16.4762
13.4077
10.8977
8.86022
7.20951
5.8562
4.74843
3.8482
3.12141
2.54389
2.07083
1.67772
1.32111
0.990536
0.745218
0.61389
0.543847
0.474118
0.390978
0.310296
0.243327
0.189542
0.141569
0.100541
0.0479154
0.0296913
0.032892
0.0408539
0.0868776
0.123872
0.169393
0.219933
0.277964
0.348615
0.450926
0.60637
0.804728
0.995301
1.15208
1.32882
1.60262
1.99289
2.49057
3.10563
3.84044
4.73649
5.83865
7.20502
8.89313
10.9468
13.4459
16.4958
20.2229
24.7467
30.1819
36.6529
44.3001
53.2623
63.6462
75.5261
88.968
104.047
120.806
139.112
158.751
179.465
200.165
217.774
227.83
227.216
217.551
204.466
192.597
179.4
167.171
161.124
158.486
154.956
151.27
147.238
143.111
139.013
135.082
131.444
128.218
125.517
123.448
122.118
121.622
122.048
123.474
125.97
129.609
134.477
140.687
148.399
157.84
169.319
183.243
200.108
220.455
244.841
273.825
307.917
347.535
392.984
444.424
501.866
565.164
634.055
708.022
786.368
868.179
952.096
1036.19
1118
1194.22
1260.4
1310.27
1334.98
1326.56
1276.73
1176.45
1022.55
818.492
578.899
335.724
130.665
-28.453
-169.695
-313.533
-466.249
-628.37
-799.579
-979.953
-1169.72
-1369.11
-1578.42
-1798.06
-2028.53
-2270.39
-2524.29
-2790.78
-3070.84
-3365.29
-3675.03
-4001.62
-4346.51
-4701.49
-5029.35
-5281.02
-5418.85
-5431.87
-5329.41
-5135.33
-4879.08
-4587.91
-4282.85
-3979.05
-3686.09
-3409.02
-3149.95
-2909.04
-2685.51
-2478.22
-2285.81
-2106.85
-1939.87
-1783.54
-1636.72
-1498.52
-1368.23