/*--------------------------------*- C++ -*----------------------------------*\
| =========                 |                                                 |
| \\      /  F ield         | OpenFOAM: The Open Source CFD Toolbox           |
|  \\    /   O peration     | Version:  2112                                  |
|   \\  /    A nd           | Website:  www.openfoam.com                      |
|    \\/     M anipulation  |                                                 |
\*---------------------------------------------------------------------------*/
FoamFile
{
    version     2.0;
    format      ascii;
    arch        "LSB;label=32;scalar=64";
    class       surfaceScalarField;
    location    "602";
    object      phi;
}
// * * * * * * * * * * * * * * * * * * * * * * * * * * * * * * * * * * * * * //

dimensions      [0 3 -1 0 0 0 0];

oriented        oriented;

internalField   nonuniform List<scalar> 
28432
(
-0.000183472
864.106
-864.106
-0.000183468
698.568
-698.568
-0.000183466
564.698
-564.698
-0.000183465
456.43
-456.43
-0.000183464
368.88
-368.88
-0.000183463
298.087
-298.087
-0.000183464
240.844
-240.844
-0.000183464
194.556
-194.556
-0.000183466
157.128
-157.128
-0.000183467
126.868
-126.868
-0.000183469
102.412
-102.412
-0.000183381
82.6468
-82.6468
-0.000183473
66.6663
-66.6663
-0.000183475
53.7386
-53.7386
-0.000183383
43.2814
-43.2814
-0.000183462
34.8275
-34.8275
-0.000183453
27.9963
-27.9963
-0.000183452
22.4778
-22.4778
-0.000183467
18.022
-18.022
-0.000183505
14.4254
-14.4254
-0.000183566
11.524
-11.524
-0.000183627
9.18462
-9.18462
-0.000183645
7.29954
-7.29954
-0.000183584
5.78181
-5.78181
-0.000183445
4.5617
-4.5617
-0.000183281
3.58406
-3.58406
-0.000183143
2.80433
-2.80433
-0.000183031
2.18546
-2.18546
-0.000182896
1.69631
-1.69631
-0.000182691
1.31132
-1.31132
-0.000182396
1.00992
-1.00992
-0.000182007
0.775466
-0.775467
-0.000181527
0.594346
-0.594346
-0.000180957
0.455398
-0.455399
-0.000180305
0.349525
-0.349525
-0.000179601
0.26939
-0.269391
-0.000178893
0.209178
-0.209179
-0.000177974
0.16431
-0.164311
-0.000176213
0.131122
-0.131124
-0.000173452
0.106714
-0.106717
-0.000170385
0.0888757
-0.0888787
-0.000167042
0.0756668
-0.0756702
-0.000162378
0.0650451
-0.0650497
-0.000155305
0.0551917
-0.0551988
-0.000145368
0.0451281
-0.045138
-0.000132168
0.034964
-0.0349772
-0.000109626
0.0253056
-0.0253281
-4.91775e-05
0.0162259
-0.0162864
-1.49619e-06
-4.76801e-05
-1.57655e-06
8.05054e-08
-1.53894e-06
-3.75369e-08
-1.51937e-06
-1.76259e-08
-1.51439e-06
-6.78697e-09
-1.5143e-06
1.1801e-10
-1.51775e-06
3.62314e-09
-1.52459e-06
6.8621e-09
-1.53373e-06
9.56885e-09
-1.54412e-06
1.68462e-08
-1.55455e-06
4.38441e-09
-1.56353e-06
9.38304e-09
-1.57128e-06
7.97322e-09
-1.57889e-06
7.8065e-09
-1.58646e-06
8.08027e-09
-1.59416e-06
8.14585e-09
-1.60232e-06
8.76989e-09
-1.61129e-06
1.40072e-08
-1.62124e-06
5.74545e-09
-1.63238e-06
1.18747e-08
-1.64498e-06
1.2717e-08
-1.65929e-06
1.45799e-08
-1.67555e-06
1.61005e-08
-1.6939e-06
1.88693e-08
-1.71423e-06
2.06175e-08
-1.73623e-06
2.23401e-08
-1.75934e-06
2.32436e-08
-1.78235e-06
2.35872e-08
-1.80601e-06
2.41256e-08
-1.82895e-06
2.38035e-08
-1.84836e-06
1.88165e-08
-1.8633e-06
1.55346e-08
-1.87166e-06
8.02873e-09
-1.87075e-06
-6.96164e-10
-1.85758e-06
-1.30427e-08
-1.82973e-06
-2.78353e-08
-1.78686e-06
-4.28295e-08
-1.73077e-06
-5.60925e-08
-1.65617e-06
-7.42803e-08
-1.53393e-06
-1.22402e-07
-1.36053e-06
-1.73395e-07
-1.21254e-06
-1.48022e-07
-1.05796e-06
-1.54558e-07
-7.96397e-07
-2.61564e-07
-3.85383e-07
-4.10928e-07
2.15749e-07
-6.01195e-07
1.07714e-06
-8.61358e-07
2.2933e-06
-1.21615e-06
3.95495e-06
-1.66163e-06
6.15111e-06
-2.19512e-06
8.94905e-06
-2.79909e-06
1.23695e-05
-3.42044e-06
1.63755e-05
-4.00603e-06
2.08802e-05
-4.50256e-06
2.57778e-05
-4.90005e-06
3.09952e-05
-5.21598e-06
3.654e-05
-5.54644e-06
4.2537e-05
-5.99701e-06
4.92745e-05
-6.73694e-06
5.72233e-05
-7.94952e-06
6.71565e-05
-9.93315e-06
7.92292e-05
-1.20727e-05
9.38983e-05
-1.46691e-05
0.000106531
-1.26322e-05
9.21708e-05
1.43597e-05
8.15302e-05
1.06406e-05
7.23682e-05
9.16197e-06
6.46804e-05
7.68803e-06
5.82269e-05
6.45337e-06
5.25166e-05
5.71029e-06
4.73076e-05
5.20897e-06
4.24963e-05
4.81134e-06
3.79314e-05
4.56489e-06
3.33589e-05
4.57249e-06
2.88067e-05
4.55216e-06
2.45616e-05
4.2451e-06
2.07981e-05
3.7636e-06
1.75747e-05
3.22333e-06
1.49023e-05
2.67248e-06
1.28005e-05
2.10172e-06
1.11341e-05
1.66638e-06
9.69555e-06
1.4386e-06
8.48189e-06
1.2137e-06
7.55936e-06
9.22587e-07
6.8285e-06
7.24803e-07
6.2122e-06
6.22005e-07
5.69294e-06
5.19191e-07
5.23152e-06
4.61485e-07
4.80847e-06
4.22976e-07
4.44397e-06
3.60258e-07
4.11759e-06
3.30456e-07
3.81976e-06
2.97819e-07
3.54877e-06
2.70944e-07
3.29423e-06
2.54726e-07
3.05969e-06
2.2996e-07
2.84698e-06
2.16363e-07
2.65052e-06
1.93568e-07
2.47002e-06
1.84891e-07
2.30313e-06
1.6341e-07
2.14927e-06
1.58455e-07
2.00849e-06
1.41287e-07
1.87836e-06
1.30615e-07
1.75769e-06
1.21252e-07
1.64563e-06
1.12467e-07
1.54067e-06
1.05241e-07
1.44122e-06
9.96953e-08
1.34567e-06
9.56914e-08
1.25237e-06
9.34141e-08
1.15914e-06
9.32433e-08
1.06427e-06
8.75654e-08
9.67434e-07
1.04724e-07
8.68214e-07
9.114e-08
7.66395e-07
1.10396e-07
6.62852e-07
1.04044e-07
5.59638e-07
1.03344e-07
4.59097e-07
1.00593e-07
3.64137e-07
9.52882e-08
2.73932e-07
8.45662e-08
1.88127e-07
9.08528e-08
1.15681e-07
7.31438e-08
6.10346e-08
5.51885e-08
2.06376e-08
4.10081e-08
-9.98209e-09
3.16872e-08
-2.96789e-08
1.91705e-08
-1.0188e-07
7.33339e-08
-3.48542e-07
2.4581e-07
-7.99814e-07
4.51443e-07
4.6702e-05
-4.75017e-05
0.000109397
0.0161632
0.000132116
0.0252829
0.00014532
0.0349508
0.000155253
0.0451181
0.000162321
0.0551847
0.000166979
0.0650404
0.000170323
0.0756635
0.000173402
0.0888726
0.000176183
0.106712
0.000177965
0.13112
0.000178893
0.164309
0.000179602
0.209178
0.000180305
0.26939
0.000180957
0.349524
0.000181527
0.455398
0.000182007
0.594345
0.000182396
0.775466
0.000182691
1.00992
0.000182896
1.31132
0.000183031
1.69631
0.000183143
2.18546
0.000183281
2.80433
0.000183445
3.58406
0.000183584
4.5617
0.000183645
5.78181
0.000183626
7.29954
0.000183566
9.18462
0.000183505
11.524
0.000183467
14.4254
0.000183452
18.022
0.000183453
22.4778
0.000183462
27.9963
0.00018356
34.8275
0.000183475
43.2814
0.000183473
53.7386
0.00018356
66.6663
0.000183469
82.6468
0.000183467
102.412
0.000183466
126.868
0.000183464
157.128
0.000183464
194.556
0.000183463
240.844
0.000183464
298.087
0.000183465
368.88
0.000183466
456.43
0.000183468
564.698
0.000183472
698.568
864.106
-0.000241465
-864.106
-0.000241461
-698.568
-0.000241459
-564.698
-0.000241458
-456.43
-0.000241458
-368.88
-0.00024146
-298.087
-0.000241462
-240.844
-0.000241465
-194.556
-0.00024147
-157.128
-0.000241476
-126.868
-0.000241483
-102.412
-0.000241491
-82.6468
-0.000241502
-66.6663
-0.000241513
-53.7386
-0.00024152
-43.2814
-0.000241521
-34.8275
-0.000241527
-27.9963
-0.000241547
-22.4778
-0.000241584
-18.022
-0.000241675
-14.4254
-0.000241795
-11.524
-0.000241924
-9.18462
-0.00024201
-7.29954
-0.000242004
-5.78181
-0.000241907
-4.5617
-0.000241813
-3.58406
-0.000241774
-2.80433
-0.000241801
-2.18546
-0.00024184
-1.69631
-0.000241838
-1.31132
-0.000241777
-1.00992
-0.000241669
-0.775467
-0.000241533
-0.594346
-0.000241391
-0.455399
-0.000241279
-0.349525
-0.000241269
-0.269391
-0.000241459
-0.209179
-0.000241638
-0.164311
-0.000240991
-0.131124
-0.000239314
-0.106719
-0.000237585
-0.0888805
-0.000235896
-0.0756719
-0.000232815
-0.0650528
-0.000226748
-0.0552049
-0.000216868
-0.0451479
-0.00020225
-0.0349918
-0.000173115
-0.0253573
-8.36224e-05
-0.0163759
-8.7946e-06
-0.000122505
-8.753e-06
3.92354e-08
-8.31801e-06
-4.72294e-07
-8.01683e-06
-3.15188e-07
-7.82032e-06
-2.0658e-07
-7.6722e-06
-1.47425e-07
-7.56161e-06
-1.06511e-07
-7.48452e-06
-7.02386e-08
-7.43284e-06
-4.11521e-08
-7.39949e-06
-5.13712e-09
-7.37704e-06
-2.8359e-08
-7.35718e-06
-9.4969e-09
-7.33984e-06
-8.87097e-09
-7.32933e-06
-2.25788e-09
-7.3251e-06
5.04872e-09
-7.32727e-06
1.1264e-08
-7.33671e-06
1.96453e-08
-7.35426e-06
4.0219e-08
-7.3804e-06
2.49699e-08
-7.41571e-06
4.87926e-08
-7.46104e-06
5.82515e-08
-7.5172e-06
7.13027e-08
-7.58527e-06
8.37459e-08
-7.66569e-06
1.0044e-07
-7.75807e-06
1.13571e-07
-7.86104e-06
1.26048e-07
-7.97227e-06
1.34686e-07
-8.08651e-06
1.39035e-07
-8.20759e-06
1.46111e-07
-8.32964e-06
1.47317e-07
-8.4403e-06
1.28598e-07
-8.53576e-06
1.12055e-07
-8.60687e-06
7.86233e-08
-8.6414e-06
3.42817e-08
-8.62566e-06
-2.84901e-08
-8.54813e-06
-1.05342e-07
-8.40652e-06
-1.8436e-07
-8.20821e-06
-2.54395e-07
-7.92676e-06
-3.55161e-07
-7.4174e-06
-6.32001e-07
-6.65391e-06
-9.36873e-07
-6.00961e-06
-7.92393e-07
-5.32673e-06
-8.37385e-07
-4.08184e-06
-1.50645e-06
-2.01586e-06
-2.47673e-06
1.15168e-06
-3.76887e-06
5.90086e-06
-5.61047e-06
1.29156e-05
-8.23086e-06
2.29616e-05
-1.17076e-05
3.6926e-05
-1.61574e-05
5.57314e-05
-2.16069e-05
8.0197e-05
-2.7886e-05
0.00011094
-3.47486e-05
0.000148366
-4.19248e-05
0.000192803
-4.9342e-05
0.000244805
-5.72149e-05
0.000305535
-6.62791e-05
0.000377185
-7.76475e-05
0.000463597
-9.31479e-05
0.000571095
-0.000115448
0.000709232
-0.00014807
0.000881623
-0.000184464
0.00109369
-0.000226731
0.00128501
-0.000203959
0.00109638
0.000202994
0.000919696
0.000187321
0.000772179
0.000156679
0.000655995
0.000123872
0.000561724
0.000100724
0.000481612
8.58228e-05
0.000412526
7.42944e-05
0.000352762
6.45758e-05
0.000300205
5.71215e-05
0.000252236
5.25414e-05
0.000208547
4.82417e-05
0.000170552
4.22398e-05
0.000138732
3.55842e-05
0.000112788
2.91667e-05
9.2164e-05
2.32966e-05
7.64174e-05
1.78483e-05
6.42957e-05
1.3788e-05
5.43058e-05
1.14285e-05
4.62089e-05
9.31067e-06
4.01591e-05
6.97245e-06
3.5467e-05
5.40638e-06
3.16281e-05
4.47081e-06
2.84796e-05
3.66751e-06
2.57728e-05
3.16854e-06
2.33748e-05
2.8207e-06
2.1354e-05
2.37379e-06
1.95886e-05
2.10285e-06
1.80156e-05
1.87076e-06
1.66141e-05
1.67236e-06
1.53254e-05
1.5438e-06
1.41582e-05
1.38949e-06
1.31143e-05
1.26619e-06
1.21632e-05
1.14027e-06
1.12996e-05
1.05604e-06
1.05095e-05
9.48114e-07
9.78793e-06
8.87939e-07
9.13313e-06
7.97121e-07
8.53261e-06
7.32147e-07
7.9798e-06
6.75292e-07
7.46989e-06
6.23165e-07
6.99549e-06
5.803e-07
6.5488e-06
5.47048e-07
6.12204e-06
5.22643e-07
5.70736e-06
5.0823e-07
5.29449e-06
5.06069e-07
4.87522e-06
4.9494e-07
4.44759e-06
5.45691e-07
4.00895e-06
5.16471e-07
3.55753e-06
5.76348e-07
3.09638e-06
5.66289e-07
2.63386e-06
5.66121e-07
2.17982e-06
5.54683e-07
1.74684e-06
5.29038e-07
1.33024e-06
4.91435e-07
9.27535e-07
5.02348e-07
5.81808e-07
4.204e-07
3.16081e-07
3.22171e-07
1.14789e-07
2.43717e-07
-4.27916e-08
1.91403e-07
-1.50551e-07
1.26147e-07
-5.48859e-07
4.73957e-07
-1.93332e-06
1.62873e-06
-4.35213e-06
2.87066e-06
7.34494e-05
-0.000125303
0.000171777
0.0160649
0.000201964
0.0252527
0.000216615
0.0349361
0.000226488
0.0451082
0.000232532
0.0551786
0.000235593
0.0650373
0.000237294
0.0756618
0.000239082
0.0888708
0.000240853
0.10671
0.000241596
0.131119
0.000241462
0.164309
0.000241271
0.209178
0.000241281
0.26939
0.000241391
0.349524
0.000241533
0.455398
0.00024167
0.594345
0.000241777
0.775466
0.000241837
1.00992
0.00024184
1.31132
0.000241801
1.69631
0.000241774
2.18546
0.000241813
2.80433
0.000241922
3.58406
0.000242004
4.5617
0.000242009
5.78181
0.000241923
7.29954
0.000241794
9.18462
0.000241674
11.524
0.0002416
14.4254
0.000241546
18.022
0.000241526
22.4778
0.000241521
27.9963
0.00024152
34.8275
0.000241513
43.2814
0.000241502
53.7386
0.000241491
66.6663
0.000241483
82.6468
0.000241476
102.412
0.00024147
126.868
0.000241465
157.128
0.000241462
194.556
0.00024146
240.844
0.000241458
298.087
0.000241458
368.88
0.000241459
456.43
0.000241461
564.698
0.000241465
698.568
864.106
-0.000317789
-864.106
-0.000317784
-698.568
-0.000317783
-564.698
-0.000317783
-456.43
-0.000316884
-368.88
-0.000317789
-298.087
-0.000317795
-240.844
-0.000317803
-194.556
-0.000317813
-157.128
-0.000317826
-126.868
-0.000317842
-102.412
-0.00031786
-82.6468
-0.000317884
-66.6663
-0.000317911
-53.7386
-0.000317934
-43.2814
-0.000317954
-34.8275
-0.000317985
-27.9963
-0.000318039
-22.4778
-0.000318133
-18.022
-0.000318285
-14.4254
-0.000318495
-11.524
-0.00031873
-9.18462
-0.000318923
-7.29954
-0.000319014
-5.78181
-0.000319019
-4.5617
-0.000319037
-3.58406
-0.000319172
-2.80433
-0.000319438
-2.18546
-0.000319775
-1.69631
-0.000320122
-1.31132
-0.000320475
-1.00992
-0.000320864
-0.775466
-0.000321337
-0.594346
-0.000321951
-0.455398
-0.000322787
-0.349525
-0.000323977
-0.26939
-0.000325707
-0.209177
-0.000327781
-0.164309
-0.000329167
-0.131123
-0.000329579
-0.106718
-0.000330372
-0.0888797
-0.000331725
-0.0756705
-0.000331683
-0.0650529
-0.000327956
-0.0552086
-0.000319157
-0.0451567
-0.000303564
-0.0350074
-0.000266363
-0.0253945
-0.000140537
-0.0165017
-2.95264e-05
-0.000233513
-2.80445e-05
-1.44233e-06
-2.60262e-05
-2.49041e-06
-2.4543e-05
-1.7936e-06
-2.34668e-05
-1.28705e-06
-2.26101e-05
-1.00368e-06
-2.19255e-05
-7.90706e-07
-2.13902e-05
-6.05447e-07
-2.09716e-05
-4.58714e-07
-2.06424e-05
-3.20133e-07
-2.03762e-05
-3.07589e-07
-2.01455e-05
-2.39362e-07
-1.99468e-05
-2.07038e-07
-1.97884e-05
-1.60145e-07
-1.96661e-05
-1.16128e-07
-1.95779e-05
-7.59762e-08
-1.95238e-05
-3.30524e-08
-1.95044e-05
3.13189e-08
-1.95195e-05
3.15817e-08
-1.95692e-05
1.00145e-07
-1.9655e-05
1.44212e-07
-1.97783e-05
1.95276e-07
-1.99414e-05
2.46542e-07
-2.01454e-05
3.05507e-07
-2.0389e-05
3.57826e-07
-2.0669e-05
4.06871e-07
-2.09798e-05
4.45826e-07
-2.13083e-05
4.68867e-07
-2.16657e-05
5.04534e-07
-2.20375e-05
5.20931e-07
-2.23924e-05
4.82328e-07
-2.27217e-05
4.42561e-07
-2.3002e-05
3.58302e-07
-2.32018e-05
2.34575e-07
-2.32842e-05
5.42951e-08
-2.32176e-05
-1.71922e-07
-2.29936e-05
-4.08368e-07
-2.26298e-05
-6.18093e-07
-2.20489e-05
-9.35412e-07
-2.08327e-05
-1.84854e-06
-1.88816e-05
-2.88791e-06
-1.7258e-05
-2.41615e-06
-1.55116e-05
-2.58373e-06
-1.20706e-05
-4.94739e-06
-6.06761e-06
-8.47956e-06
3.50013e-06
-1.33367e-05
1.83359e-05
-2.04461e-05
4.09217e-05
-3.08166e-05
7.41915e-05
-4.49774e-05
0.000121698
-6.36609e-05
0.000187381
-8.72929e-05
0.000275114
-0.000115619
0.000388316
-0.000147951
0.000529805
-0.00018341
0.000702021
-0.000221562
0.000907782
-0.000262975
0.00115116
-0.000309662
0.00143799
-0.000364474
0.00177592
-0.000431081
0.00217426
-0.000513787
0.00264285
-0.000616664
0.00318555
-0.000727159
0.00382592
-0.000867104
0.00443085
-0.000808889
0.00389023
0.000743616
0.00332439
0.000753165
0.00282054
0.000660524
0.00239232
0.000552095
0.00203313
0.000459917
0.00172989
0.000389056
0.00147077
0.000333416
0.00124597
0.00028938
0.00104838
0.00025471
0.000873658
0.000227261
0.000719558
0.000202341
0.000585654
0.000176144
0.000472732
0.000148507
0.000380893
0.000121006
0.000308496
9.56933e-05
0.000252481
7.38631e-05
0.000208669
5.76005e-05
0.000172908
4.71893e-05
0.000144333
3.78852e-05
0.000122986
2.83195e-05
0.000106572
2.18095e-05
9.3385e-05
1.76688e-05
8.27482e-05
1.43042e-05
7.38108e-05
1.2106e-05
6.6094e-05
1.05374e-05
5.96995e-05
8.7596e-06
5.42207e-05
7.59005e-06
4.94354e-05
6.65605e-06
4.52471e-05
5.86055e-06
4.14677e-05
5.3236e-06
3.80975e-05
4.75002e-06
3.51224e-05
4.24879e-06
3.24462e-05
3.81055e-06
3.00435e-05
3.46814e-06
2.78683e-05
3.11622e-06
2.59002e-05
2.8658e-06
2.41293e-05
2.5691e-06
2.25182e-05
2.34424e-06
2.10464e-05
2.14839e-06
1.96986e-05
1.97182e-06
1.84535e-05
1.82593e-06
1.72892e-05
1.71202e-06
1.61838e-05
1.62841e-06
1.51157e-05
1.57658e-06
1.40567e-05
1.56512e-06
1.29841e-05
1.55245e-06
1.1891e-05
1.65541e-06
1.07688e-05
1.62179e-06
9.61039e-06
1.75297e-06
8.42132e-06
1.75646e-06
7.22076e-06
1.76697e-06
6.03215e-06
1.74344e-06
4.88693e-06
1.67494e-06
3.76969e-06
1.59597e-06
2.67097e-06
1.6125e-06
1.71129e-06
1.38179e-06
9.59446e-07
1.07534e-06
3.75963e-07
8.28735e-07
-9.51024e-08
6.65205e-07
-4.37414e-07
4.6723e-07
-1.7084e-06
1.74786e-06
-6.1666e-06
6.08481e-06
-1.36096e-05
1.03141e-05
0.000109368
-0.000248281
0.000261897
0.0159124
0.000302642
0.025212
0.000318382
0.0349204
0.000327185
0.0450994
0.000330881
0.0551749
0.000330882
0.0650373
0.000329576
0.0756631
0.000328953
0.0888714
0.000328802
0.10671
0.000327672
0.131121
0.000325713
0.164311
0.000323984
0.20918
0.00032279
0.269391
0.000321953
0.349525
0.000321338
0.455398
0.000320864
0.594346
0.000320475
0.775466
0.000320122
1.00992
0.000319774
1.31132
0.000319438
1.69632
0.000319171
2.18546
0.000319036
2.80433
0.000319018
3.58406
0.000319013
4.5617
0.000318921
5.78181
0.000318727
7.29954
0.000318492
9.18462
0.000318283
11.524
0.000318131
14.4254
0.000318036
18.022
0.000317982
22.4778
0.000317954
27.9963
0.000317934
34.8275
0.000317911
43.2814
0.000317884
53.7386
0.00031786
66.6663
0.000317842
82.6468
0.000317826
102.412
0.000317813
126.868
0.000317803
157.128
0.000317795
194.556
0.000317789
240.844
0.000318687
298.087
0.000317783
368.88
0.000317783
456.43
0.000317784
564.698
0.000317789
698.568
864.106
-0.000418238
-864.106
-0.000418233
-698.568
-0.000418233
-564.698
-0.000418235
-456.43
-0.000418241
-368.88
-0.000418248
-298.087
-0.00041826
-240.844
-0.000418274
-194.556
-0.000418293
-157.128
-0.000418317
-126.868
-0.000418345
-102.412
-0.00041838
-82.6468
-0.000418423
-66.6663
-0.000418475
-53.7386
-0.000418525
-43.2814
-0.000418576
-34.8275
-0.000418646
-27.9963
-0.000418753
-22.4778
-0.000418922
-18.022
-0.00041917
-14.4254
-0.000419524
-11.524
-0.000419919
-9.18462
-0.000420279
-7.29954
-0.00042053
-5.78181
-0.000420697
-4.5617
-0.000420919
-3.58406
-0.000421343
-2.80433
-0.000421998
-2.18546
-0.000422815
-1.69631
-0.000423735
-1.31132
-0.000424768
-1.00992
-0.000425979
-0.775465
-0.000427461
-0.594344
-0.000429323
-0.455397
-0.000431716
-0.349522
-0.000434868
-0.269387
-0.00043909
-0.209173
-0.000444264
-0.164304
-0.000449097
-0.131118
-0.000453169
-0.106714
-0.000458315
-0.0888745
-0.000464819
-0.075664
-0.000470033
-0.0650476
-0.00047069
-0.0552079
-0.00046465
-0.0451627
-0.000448982
-0.0350231
-0.000402379
-0.0254411
-0.000237727
-0.0166663
-8.22311e-05
-0.000389004
-7.48385e-05
-8.83431e-06
-6.81257e-05
-9.20266e-06
-6.30844e-05
-6.82908e-06
-5.92836e-05
-5.093e-06
-5.62167e-05
-4.06947e-06
-5.37267e-05
-3.27976e-06
-5.17283e-05
-2.60396e-06
-5.01181e-05
-2.06723e-06
-4.88116e-05
-1.60956e-06
-4.77314e-05
-1.40271e-06
-4.6802e-05
-1.16704e-06
-4.60055e-05
-1.00269e-06
-4.53529e-05
-8.11914e-07
-4.48274e-05
-6.39542e-07
-4.44176e-05
-4.84157e-07
-4.41188e-05
-3.29354e-07
-4.3928e-05
-1.47277e-07
-4.38408e-05
-6.49964e-08
-4.3855e-05
1.17096e-07
-4.39711e-05
2.60704e-07
-4.41911e-05
4.16144e-07
-4.45185e-05
5.73243e-07
-4.4955e-05
7.43952e-07
-4.54983e-05
9.02026e-07
-4.61412e-05
1.05097e-06
-4.68723e-05
1.17729e-06
-4.76641e-05
1.2627e-06
-4.85432e-05
1.38519e-06
-4.94803e-05
1.46007e-06
-5.04079e-05
1.40885e-06
-5.1309e-05
1.34519e-06
-5.21339e-05
1.18263e-06
-5.28131e-05
9.14464e-07
-5.32634e-05
5.05159e-07
-5.341e-05
-2.52791e-08
-5.32287e-05
-5.89561e-07
-5.27535e-05
-1.09332e-06
-5.17924e-05
-1.89564e-06
-4.9325e-05
-4.31615e-06
-4.50526e-05
-7.16033e-06
-4.15385e-05
-5.93035e-06
-3.77198e-05
-6.40238e-06
-2.9677e-05
-1.29902e-05
-1.51235e-05
-2.30328e-05
8.63872e-06
-3.70992e-05
4.61095e-05
-5.79167e-05
0.000103792
-8.84989e-05
0.000189245
-0.000130431
0.00031134
-0.000185753
0.000479378
-0.000255334
0.000701584
-0.000337825
0.000983855
-0.000430223
0.0013295
-0.000529054
0.00174015
-0.000632208
0.00221755
-0.000740374
0.00276522
-0.00085734
0.00338932
-0.000988568
0.00409884
-0.0011406
0.00490489
-0.00131984
0.00582076
-0.00153253
0.0068597
-0.00176611
0.00804863
-0.00205603
0.00908011
-0.00184037
0.00827242
0.0015513
0.0072533
0.00177229
0.00632496
0.00158886
0.00549046
0.0013866
0.00474492
0.00120546
0.00407791
0.00105606
0.0034807
0.000930626
0.00294727
0.000822805
0.00247359
0.000728392
0.00205769
0.00064316
0.00169648
0.00056355
0.00138582
0.000486804
0.00112374
0.000410584
0.000909254
0.000335496
0.00073856
0.000266387
0.000603802
0.000208621
0.000496346
0.000165057
0.000410408
0.000133127
0.00034343
0.000104863
0.000292208
7.95413e-05
0.000252603
6.14048e-05
0.000221007
4.92743e-05
0.000195182
4.01297e-05
0.00017336
3.39278e-05
0.000154587
2.93109e-05
0.000138951
2.43865e-05
0.00012556
2.09896e-05
0.000113911
1.83052e-05
0.000103766
1.60053e-05
9.46922e-05
1.43978e-05
8.66629e-05
1.27694e-05
7.9619e-05
1.13004e-05
7.33322e-05
1.00919e-05
6.77315e-05
9.07933e-06
6.26988e-05
8.14186e-06
5.81768e-05
7.39887e-06
5.41337e-05
6.61394e-06
5.04796e-05
5.99998e-06
4.71631e-05
5.46698e-06
4.41457e-05
4.99049e-06
4.13764e-05
4.59628e-06
3.88035e-05
4.28612e-06
3.63762e-05
4.05593e-06
3.40444e-05
3.90866e-06
3.17425e-05
3.86688e-06
2.94175e-05
3.86085e-06
2.7051e-05
4.04101e-06
2.46195e-05
4.03446e-06
2.21022e-05
4.29142e-06
1.95048e-05
4.35575e-06
1.68643e-05
4.40788e-06
1.42266e-05
4.38129e-06
1.16574e-05
4.2455e-06
9.11427e-06
4.12406e-06
6.56904e-06
4.17139e-06
4.30738e-06
3.64625e-06
2.50232e-06
2.88276e-06
1.06923e-06
2.26457e-06
-1.19911e-07
1.8581e-06
-1.03989e-06
1.38607e-06
-4.43936e-06
5.15145e-06
-1.62527e-05
1.78955e-05
-3.39032e-05
2.79655e-05
0.00015593
-0.000438113
0.000390216
0.0156781
0.000446517
0.0251557
0.000462691
0.0349042
0.000468815
0.0450933
0.000468107
0.0551756
0.000462844
0.0650426
0.000456469
0.0756695
0.000451744
0.0888761
0.000448284
0.106713
0.000444028
0.131125
0.000439103
0.164316
0.000434882
0.209184
0.000431723
0.269394
0.000429327
0.349527
0.000427462
0.4554
0.00042598
0.594347
0.000424767
0.775467
0.000423734
1.00992
0.000422814
1.31132
0.000421996
1.69632
0.000421341
2.18546
0.000420918
2.80433
0.000420696
3.58406
0.000420528
4.5617
0.000420275
5.78181
0.000419914
7.29954
0.00041952
9.18462
0.000419183
11.524
0.000418919
14.4254
0.000418748
18.022
0.000418641
22.4778
0.000418574
27.9963
0.000418525
34.8275
0.000418475
43.2814
0.000418424
53.7386
0.00041838
66.6663
0.000418346
82.6468
0.000418317
102.412
0.000418293
126.868
0.000418274
157.128
0.000418259
194.556
0.000418248
240.844
0.000418241
298.087
0.000418235
368.88
0.000418233
456.43
0.000418233
564.698
0.000418238
698.568
864.106
-0.000550438
-864.106
-0.000550433
-698.568
-0.000550435
-564.698
-0.000550441
-456.43
-0.00055045
-368.88
-0.000550465
-298.087
-0.000550484
-240.844
-0.000550509
-194.556
-0.000550541
-157.128
-0.000550581
-126.868
-0.000550629
-102.412
-0.000550687
-82.6468
-0.000550761
-66.6663
-0.00055085
-53.7386
-0.000550942
-43.2814
-0.000551042
-34.8275
-0.000551173
-27.9963
-0.000551361
-22.4778
-0.000551643
-18.022
-0.000552054
-14.4254
-0.0005526
-11.524
-0.000553233
-9.18462
-0.000553845
-7.29953
-0.000554347
-5.78181
-0.000554779
-4.5617
-0.000555334
-3.58406
-0.000556216
-2.80433
-0.000557478
-2.18546
-0.000559047
-1.69631
-0.000560866
-1.31132
-0.000562974
-1.00992
-0.000565489
-0.775463
-0.000568568
-0.594341
-0.000572407
-0.455393
-0.000577259
-0.349517
-0.000583494
-0.269381
-0.000591612
-0.209165
-0.000601663
-0.164294
-0.000612098
-0.131108
-0.000622252
-0.106704
-0.000634526
-0.0888622
-0.000649358
-0.0756492
-0.00066311
-0.0650339
-0.000671275
-0.0551998
-0.000670645
-0.0451633
-0.000656567
-0.0350371
-0.000600018
-0.0254976
-0.00040353
-0.0168628
-0.000198468
-0.000594064
-0.000177184
-3.01174e-05
-0.000159365
-2.70216e-05
-0.000145789
-2.04001e-05
-0.000135268
-1.56188e-05
-0.000126696
-1.26405e-05
-0.000119675
-1.03008e-05
-0.000113967
-8.31184e-06
-0.000109308
-6.72442e-06
-0.000105483
-5.41895e-06
-0.000102297
-4.60227e-06
-9.95708e-05
-3.89256e-06
-9.72446e-05
-3.3282e-06
-9.5322e-05
-2.73388e-06
-9.37518e-05
-2.20822e-06
-9.24977e-05
-1.73693e-06
-9.15374e-05
-1.28773e-06
-9.08553e-05
-8.17784e-07
-9.04366e-05
-4.92759e-07
-9.02712e-05
-4.61207e-08
-9.03553e-05
3.45094e-07
-9.0689e-05
7.50753e-07
-9.1277e-05
1.16078e-06
-9.21211e-05
1.58963e-06
-9.32157e-05
1.99745e-06
-9.45477e-05
2.38407e-06
-9.60954e-05
2.72548e-06
-9.78071e-05
2.97618e-06
-9.97382e-05
3.31762e-06
-0.000101834
3.55821e-06
-0.000103967
3.54026e-06
-0.000106105
3.48503e-06
-0.000108156
3.23235e-06
-0.000109984
2.74399e-06
-0.000111428
1.94903e-06
-0.000112331
8.77627e-07
-0.000112631
-2.89454e-07
-0.000112376
-1.34837e-06
-0.000111127
-3.14372e-06
-0.000106615
-8.82783e-06
-9.799e-05
-1.57857e-05
-9.08386e-05
-1.30819e-05
-8.29583e-05
-1.42826e-05
-6.56395e-05
-3.03089e-05
-3.37546e-05
-5.49174e-05
1.86104e-05
-8.94642e-05
0.000100928
-0.000140234
0.000226252
-0.000213823
0.000408283
-0.000312462
0.00066113
-0.000438596
0.000996825
-0.000591032
0.00142308
-0.000764076
0.0019431
-0.000950248
0.00255746
-0.00114341
0.00326637
-0.00134112
0.00407203
-0.00154603
0.00498031
-0.00176563
0.00600155
-0.00200981
0.00715082
-0.00228987
0.00844753
-0.00261655
0.00991557
-0.00300056
0.011585
-0.00343554
0.0134851
-0.00395609
0.0146527
-0.00300798
0.0139707
0.00223331
0.0124414
0.00330155
0.0110791
0.00295112
0.0098487
0.00261704
0.00872744
0.00232672
0.00769195
0.00209155
0.00672357
0.00189901
0.00580954
0.00173684
0.00494441
0.00159352
0.00413679
0.00145078
0.00340893
0.00129141
0.00277771
0.00111802
0.00224626
0.000942034
0.0018108
0.000770961
0.0014629
0.000614287
0.0011886
0.000482918
0.000972416
0.000381244
0.000804085
0.000301458
0.0006754
0.000233549
0.00057616
0.000178781
0.000498983
0.000138576
0.000437434
0.000110829
0.000386553
9.10105e-05
0.000344138
7.63427e-05
0.000308674
6.4775e-05
0.000278842
5.42125e-05
0.000253002
4.68353e-05
0.000230272
4.10355e-05
0.000210242
3.60352e-05
0.000192247
3.2393e-05
0.000176227
2.87812e-05
0.000162042
2.54923e-05
0.000149379
2.27494e-05
0.000138154
2.03132e-05
0.000128077
1.82126e-05
0.000118997
1.64885e-05
0.000110862
1.47502e-05
0.000103508
1.3356e-05
9.68373e-05
1.2139e-05
9.07789e-05
1.105e-05
8.52327e-05
1.01432e-05
8.00963e-05
9.42316e-06
7.52684e-05
8.8844e-06
7.06463e-05
8.53133e-06
6.60978e-05
8.41541e-06
6.15117e-05
8.42972e-06
5.68419e-05
8.73006e-06
5.20312e-05
8.82535e-06
4.70277e-05
9.31676e-06
4.1831e-05
9.55397e-06
3.65036e-05
9.73571e-06
3.11264e-05
9.75883e-06
2.58235e-05
9.54931e-06
2.0489e-05
9.44169e-06
1.50488e-05
9.62677e-06
1.01286e-05
8.56914e-06
6.12843e-06
6.885e-06
2.88318e-06
5.51235e-06
1.24149e-07
4.62112e-06
-2.15961e-06
3.66809e-06
-1.04586e-05
1.34547e-05
-3.79736e-05
4.54075e-05
-7.01798e-05
6.01724e-05
0.000217667
-0.00072596
0.000570157
0.0153256
0.00065047
0.0250753
0.000666105
0.0348886
0.000667075
0.0450923
0.000658918
0.0551838
0.00064511
0.0650564
0.00063064
0.0756839
0.000619281
0.0888875
0.000610437
0.106722
0.000601203
0.131134
0.000591636
0.164326
0.000583519
0.209192
0.000577272
0.2694
0.000572415
0.349532
0.000568572
0.455404
0.000565489
0.59435
0.000562973
0.77547
0.000560864
1.00992
0.000559045
1.31133
0.000557475
1.69632
0.000556213
2.18546
0.000555332
2.80433
0.000554778
3.58406
0.000554345
4.5617
0.00055384
5.78181
0.000553226
7.29954
0.000552594
9.18462
0.000552048
11.524
0.000551637
14.4254
0.000551353
18.022
0.000551165
22.4778
0.000551038
27.9963
0.000550941
34.8275
0.000550851
43.2814
0.000550763
53.7386
0.000550689
66.6663
0.00055063
82.6468
0.000550581
102.412
0.00055054
126.868
0.000550508
157.128
0.000550483
194.556
0.000550464
240.844
0.00055045
298.087
0.00055044
368.88
0.000550435
456.43
0.000550433
564.698
0.000550438
698.568
864.106
-0.000724424
-864.106
-0.00072442
-698.568
-0.000724426
-564.698
-0.000724436
-456.43
-0.000724453
-368.88
-0.000724477
-298.087
-0.000724508
-240.844
-0.000724459
-194.556
-0.0007246
-157.128
-0.000724574
-126.868
-0.000724741
-102.412
-0.000724835
-82.6468
-0.000724955
-66.6663
-0.000725099
-53.7386
-0.000725254
-43.2814
-0.000725429
-34.8275
-0.000725652
-27.9963
-0.000725963
-22.4778
-0.000726411
-18.022
-0.000727049
-14.4254
-0.000727889
-11.524
-0.00072887
-9.18462
-0.000729859
-7.29953
-0.000730746
-5.78181
-0.000731594
-4.5617
-0.000732662
-3.58406
-0.000734256
-2.80433
-0.000736444
-2.18545
-0.000739158
-1.69631
-0.000742353
-1.31132
-0.000746112
-1.00991
-0.000750633
-0.775458
-0.000756175
-0.594336
-0.000763054
-0.455386
-0.00077168
-0.349509
-0.000782632
-0.26937
-0.000796691
-0.209151
-0.000814208
-0.164276
-0.000833458
-0.131088
-0.000853422
-0.106684
-0.000877019
-0.0888386
-0.000904817
-0.0756214
-0.000931961
-0.0650067
-0.000952296
-0.0551794
-0.000961242
-0.0451544
-0.000951753
-0.0350466
-0.000886879
-0.0255625
-0.000672825
-0.0170769
-0.000414428
-0.000852458
-0.000371527
-7.30176e-05
-0.000332743
-6.58048e-05
-0.000302816
-5.0321e-05
-0.000279007
-3.94332e-05
-0.000259398
-3.22479e-05
-0.000243199
-2.64987e-05
-0.000229875
-2.16359e-05
-0.00021889
-1.77071e-05
-0.000209796
-1.44952e-05
-0.000202195
-1.22186e-05
-0.000195719
-1.03662e-05
-0.000190221
-8.82543e-06
-0.00018566
-7.29329e-06
-0.000181913
-5.9528e-06
-0.000178885
-4.76246e-06
-0.000176513
-3.65719e-06
-0.000174751
-2.56604e-06
-0.000173565
-1.68864e-06
-0.000172928
-6.79811e-07
-0.000172825
2.42478e-07
-0.00017325
1.17786e-06
-0.00017421
2.11916e-06
-0.000175704
3.08603e-06
-0.000177721
4.01568e-06
-0.000180238
4.9024e-06
-0.000183218
5.7064e-06
-0.000186579
6.33943e-06
-0.000190409
7.15065e-06
-0.000194621
7.77263e-06
-0.000199004
7.92203e-06
-0.000203504
7.98702e-06
-0.000207972
7.69904e-06
-0.000212197
6.9701e-06
-0.000215917
5.66966e-06
-0.000218872
3.83274e-06
-0.000220942
1.78101e-06
-0.000222168
-1.22073e-07
-0.000221636
-3.67483e-06
-0.000214815
-1.56495e-05
-0.000199267
-3.13334e-05
-0.000185446
-2.69037e-05
-0.00016932
-3.04079e-05
-0.000133799
-6.58296e-05
-6.90124e-05
-0.000119704
3.55746e-05
-0.000194052
0.00019562
-0.000300279
0.000430689
-0.000448891
0.00075735
-0.000639123
0.00118981
-0.000871057
0.00173856
-0.00113979
0.00241078
-0.00143629
0.00321167
-0.00175114
0.00414612
-0.00207786
0.00521972
-0.00241472
0.00644058
-0.00276688
0.00782111
-0.00314617
0.00937933
-0.00356803
0.0111399
-0.00405046
0.0131344
-0.004611
0.0154017
-0.00526788
0.017994
-0.0060279
0.0208046
-0.00676669
0.0217083
-0.00391161
0.0215788
0.00236279
0.0193607
0.0055196
0.0173123
0.00499961
0.0155218
0.00440753
0.0139306
0.00391783
0.0124894
0.00353278
0.0111553
0.0032331
0.00988994
0.00300221
0.00866081
0.00282265
0.00744991
0.00266168
0.00626635
0.00247497
0.00515207
0.00223231
0.00416335
0.00193075