/*--------------------------------*- C++ -*----------------------------------*\
| =========                 |                                                 |
| \\      /  F ield         | OpenFOAM: The Open Source CFD Toolbox           |
|  \\    /   O peration     | Version:  2112                                  |
|   \\  /    A nd           | Website:  www.openfoam.com                      |
|    \\/     M anipulation  |                                                 |
\*---------------------------------------------------------------------------*/
FoamFile
{
    version     2.0;
    format      ascii;
    arch        "LSB;label=32;scalar=64";
    class       volVectorField;
    location    "602";
    object      U;
}
// * * * * * * * * * * * * * * * * * * * * * * * * * * * * * * * * * * * * * //

dimensions      [0 1 -1 0 0 0 0];

internalField   nonuniform List<vector> 
14336
(
(50.6872 0 9.02658)
(50.6853 0 9.02524)
(50.6848 0 9.02318)
(50.6841 0 9.02009)
(50.6837 0 9.01605)
(50.6834 0 9.0109)
(50.6832 0 9.00439)
(50.6831 0 8.99616)
(50.6831 0 8.98583)
(50.6832 -2.21535e-31 8.97328)
(50.6833 0 8.95864)
(50.6833 0 8.94154)
(50.683 -7.79471e-31 8.92044)
(50.6832 1.17987e-30 8.89324)
(50.6825 0 8.85866)
(50.6793 2.87477e-30 8.81625)
(50.6747 0 8.76505)
(50.6711 0 8.70367)
(50.6698 0 8.63068)
(50.6737 0 8.54407)
(50.6842 -2.77882e-28 8.44177)
(50.6989 0 8.32116)
(50.7086 8.56492e-28 8.17921)
(50.6995 0 8.0126)
(50.663 4.95412e-28 7.81863)
(50.6069 0 7.59755)
(50.5501 2.06259e-27 7.35225)
(50.5025 0 7.08643)
(50.4542 0 6.80276)
(50.388 0 6.50402)
(50.2928 0 6.19517)
(50.165 0 5.88333)
(50.0037 -1.00171e-25 5.57691)
(49.8074 -1.57384e-25 5.28495)
(49.5748 2.50251e-25 5.01674)
(49.3068 0 4.78213)
(49.0121 0 4.59253)
(48.7003 0 4.46163)
(48.2547 -4.90387e-25 4.40348)
(47.4504 0 4.43238)
(46.3862 3.58219e-25 4.56553)
(45.3159 0 4.80739)
(44.0379 0 5.11118)
(42.2038 0 5.36402)
(39.5819 0 5.42476)
(36.1748 0 5.19864)
(31.8485 -4.66127e-24 4.65485)
(24.0334 0 3.69589)
(0.343128 4.70298e-19 0.0566812)
(0.397532 0 0.0560548)
(0.391405 -6.82314e-19 0.0549628)
(0.387737 3.02805e-24 0.0542028)
(0.389249 -2.33456e-25 0.0539366)
(0.391907 8.14897e-19 0.0537589)
(0.39504 4.69443e-27 0.0535554)
(0.398865 1.16654e-18 0.0533596)
(0.403159 0 0.0531355)
(0.40766 -8.50311e-19 0.0528429)
(0.412161 0 0.05245)
(0.416276 -1.27636e-18 0.051903)
(0.419644 -2.24442e-18 0.0511563)
(0.422826 -1.99714e-18 0.0502769)
(0.425852 0 0.0492649)
(0.42877 -1.64906e-18 0.0481187)
(0.431666 -2.30828e-26 0.046838)
(0.434656 1.45152e-18 0.0454186)
(0.43782 2.05261e-26 0.0438458)
(0.441201 1.37053e-18 0.04209)
(0.444889 2.0947e-26 0.0401168)
(0.448946 -2.02127e-26 0.0378777)
(0.453453 1.44573e-18 0.0353171)
(0.458468 -1.53014e-18 0.0323672)
(0.463998 -1.65255e-18 0.0289531)
(0.469972 1.82159e-18 0.0249953)
(0.476262 -2.04872e-18 0.0204157)
(0.482663 1.66429e-26 0.0151497)
(0.488678 -6.8527e-19 0.00914532)
(0.495135 2.03119e-19 0.00239262)
(0.500436 4.88229e-19 -0.00513094)
(0.504538 0 -0.01338)
(0.506912 0 -0.0222796)
(0.50688 1.14128e-25 -0.0317053)
(0.503596 -1.25717e-25 -0.041453)
(0.496251 1.7539e-25 -0.0512584)
(0.484338 -1.95798e-25 -0.0608114)
(0.468162 0 -0.0698705)
(0.448402 1.07449e-17 -0.0782664)
(0.421945 -1.18521e-22 -0.0851028)
(0.37758 -1.03068e-24 -0.0870727)
(0.324314 -1.0251e-17 -0.0848812)
(0.291477 1.25936e-17 -0.086791)
(0.238274 -1.53502e-17 -0.080546)
(0.155244 4.45896e-24 -0.0595583)
(0.03609 1.09687e-17 -0.0157882)
(-0.123834 -1.27152e-17 0.0611873)
(-0.337555 1.42827e-17 0.190517)
(-0.610921 7.63436e-18 0.395189)
(-0.94105 0 0.701465)
(-1.31453 1.26962e-17 1.13643)
(-1.70134 1.02212e-23 1.71922)
(-2.05703 -9.72183e-19 2.45182)
(-2.33203 2.69647e-18 3.31222)
(-2.48559 6.0098e-18 4.25607)
(-2.49911 5.33859e-18 5.22864)
(-2.38039 0 6.18297)
(-2.15702 -1.26065e-17 7.09411)
(-1.8644 1.27656e-22 7.96584)
(-1.5359 3.07523e-18 8.83603)
(-1.19388 -2.06469e-18 9.76175)
(-0.853674 1.35987e-18 10.8529)
(-0.499585 3.52547e-18 11.9157)
(-0.155726 -2.80921e-19 13.3583)
(0.301309 0 12.9089)
(0.651166 -3.97098e-18 12.0122)
(1.03203 -1.68242e-18 11.3921)
(1.42923 2.8654e-18 10.8097)
(1.8417 -4.88307e-18 10.2365)
(2.26549 2.59725e-22 9.64218)
(2.6809 1.42559e-17 8.99292)
(3.06445 0 8.28051)
(3.39157 -2.06694e-17 7.50942)
(3.62125 -2.66206e-24 6.66069)
(3.6949 4.42115e-22 5.71127)
(3.63124 4.79802e-17 4.76608)
(3.4597 -3.90997e-17 3.8908)
(3.22801 -1.17537e-21 3.13382)
(2.95949 5.03583e-17 2.49577)
(2.70364 3.99854e-17 1.98946)
(2.4832 6.32649e-17 1.59901)
(2.27422 0 1.28477)
(2.05211 3.95201e-17 1.01965)
(1.87461 -1.56137e-23 0.819435)
(1.73357 -1.14067e-23 0.666187)
(1.60819 5.74081e-22 0.542635)
(1.49524 -1.15518e-23 0.44195)
(1.39791 3.17977e-24 0.360522)
(1.29754 4.12136e-17 0.290487)
(1.20898 3.34684e-17 0.233075)
(1.12988 -1.70741e-22 0.185545)
(1.0541 2.24213e-17 0.1453)
(0.985003 -5.76221e-25 0.111651)
(0.919234 1.53516e-17 0.0832344)
(0.855712 -3.9934e-25 0.0592846)
(0.798424 0 0.0394702)
(0.744654 4.53785e-18 0.0230414)
(0.69474 6.71296e-26 0.00957138)
(0.648539 -1.47981e-24 -0.00134105)
(0.605173 2.22159e-26 -0.0100538)
(0.565494 -6.9458e-26 -0.0168912)
(0.528811 6.75161e-24 -0.0221343)
(0.494637 -7.49356e-18 -0.0260336)
(0.462909 0 -0.0288237)
(0.433284 -5.86477e-18 -0.0307043)
(0.405348 -5.22423e-18 -0.0318331)
(0.378676 4.66416e-18 -0.03234)
(0.352837 -6.69316e-26 -0.0323231)
(0.327386 0 -0.0318517)
(0.301605 -4.34899e-26 -0.0309302)
(0.275296 4.64686e-26 -0.0296065)
(0.248492 0 -0.027913)
(0.220962 -1.79757e-18 -0.0258606)
(0.192836 -3.62938e-26 -0.0234821)
(0.164481 1.81052e-23 -0.0208214)
(0.136646 0 -0.0179843)
(0.109886 -4.7156e-19 -0.0150356)
(0.0851973 0 -0.0121308)
(0.0612974 -6.84848e-19 -0.00913483)
(0.0391846 -5.1232e-26 -0.00621798)
(0.022442 1.19492e-18 -0.00390486)
(0.0100471 -7.39973e-19 -0.00211578)
(0.00107426 8.96883e-19 -0.000765029)
(-0.00591877 2.92984e-24 0.000310534)
(-0.00904209 -1.40792e-24 0.00101665)
(-0.0406084 7.42658e-19 0.00561361)
(-0.12802 4.16563e-25 0.0179252)
(-0.260531 -5.11398e-19 0.027462)
(23.941 1.48263e-25 3.68348)
(31.8344 0 4.65052)
(36.1625 0 5.19653)
(39.569 1.208e-24 5.42344)
(42.1895 0 5.36321)
(44.0215 0 5.11069)
(45.2985 0 4.80707)
(46.3706 0 4.56527)
(47.4394 -3.58469e-25 4.43218)
(48.25 4.8321e-25 4.40331)
(48.7004 0 4.46143)
(49.0123 -6.90556e-25 4.59235)
(49.3069 0 4.78201)
(49.5748 0 5.01667)
(49.8075 0 5.2849)
(50.0037 1.0068e-25 5.57688)
(50.165 0 5.88331)
(50.2928 0 6.19516)
(50.388 0 6.50401)
(50.4542 0 6.80275)
(50.5025 4.24304e-27 7.08643)
(50.5501 0 7.35225)
(50.6069 -1.00612e-27 7.59755)
(50.663 4.95532e-28 7.81863)
(50.6994 0 8.0126)
(50.7085 -8.97706e-28 8.17921)
(50.6988 0 8.32116)
(50.6841 0 8.44177)
(50.6736 0 8.54407)
(50.6698 0 8.63068)
(50.671 7.76848e-29 8.70367)
(50.6747 0 8.76505)
(50.6793 0 8.81625)
(50.6825 1.8429e-30 8.85866)
(50.6832 0 8.89324)
(50.683 0 8.92044)
(50.6833 -4.88449e-31 8.94154)
(50.6833 -3.22869e-31 8.95864)
(50.6832 2.15943e-31 8.97328)
(50.6831 0 8.98583)
(50.6831 0 8.99616)
(50.6832 6.04432e-32 9.00439)
(50.6834 0 9.0109)
(50.6837 0 9.01605)
(50.6841 0 9.02009)
(50.6848 0 9.02318)
(50.6853 0 9.02524)
(50.6872 -1.77861e-33 9.02658)
(50.6872 0 9.02658)
(50.6853 0 9.02524)
(50.6848 0 9.02318)
(50.6841 0 9.02009)
(50.6837 0 9.01605)
(50.6834 0 9.0109)
(50.6832 0 9.00439)
(50.6831 -8.8576e-31 8.99616)
(50.6831 0 8.98583)
(50.6832 -1.92434e-30 8.97328)
(50.6833 0 8.95864)
(50.6833 5.22641e-30 8.94155)
(50.683 9.54796e-31 8.92044)
(50.6832 1.01172e-29 8.89324)
(50.6825 0 8.85866)
(50.6793 -3.52157e-30 8.81624)
(50.6747 1.15922e-28 8.76505)
(50.6713 0 8.70367)
(50.6699 0 8.63068)
(50.6737 1.06485e-27 8.54407)
(50.6843 -2.57976e-27 8.44177)
(50.699 0 8.32116)
(50.7087 5.61264e-27 8.17921)
(50.6995 0 8.0126)
(50.663 4.23911e-27 7.81863)
(50.607 3.43602e-32 7.59755)
(50.5502 -2.51516e-27 7.35225)
(50.5025 0 7.08642)
(50.4542 0 6.80275)
(50.3881 0 6.50402)
(50.2928 0 6.19517)
(50.165 0 5.88334)
(50.0036 1.19981e-25 5.57693)
(49.8073 1.87164e-25 5.28497)
(49.5746 -2.92483e-25 5.01678)
(49.3066 3.81347e-24 4.7822)
(49.0117 6.10177e-24 4.59263)
(48.7 0 4.46178)
(48.261 6.22185e-25 4.40365)
(47.466 3.69531e-24 4.43263)
(46.4085 -4.58774e-25 4.56587)
(45.3408 0 4.80787)
(44.0602 0 5.11189)
(42.2205 8.9929e-24 5.3651)
(39.5934 1.25983e-23 5.42638)
(36.1823 1.86654e-23 5.20108)
(31.8508 5.97671e-24 4.65985)
(24.1069 -1.56163e-22 3.71168)
(1.30789 1.02906e-18 0.212271)
(1.42169 8.68287e-19 0.200332)
(1.38802 1.45913e-18 0.194715)
(1.36483 -1.21055e-18 0.190476)
(1.36069 1.00742e-18 0.188247)
(1.36165 -1.67937e-18 0.186507)
(1.36516 -1.40466e-18 0.184837)
(1.37187 -2.36012e-18 0.183329)
(1.38092 0 0.181842)
(1.39132 -6.91809e-24 0.180225)
(1.40228 0 0.178358)
(1.41246 -1.48907e-25 0.176049)
(1.42057 2.20392e-18 0.173134)
(1.42847 3.90723e-18 0.169837)
(1.43623 0 0.166149)
(1.44395 0 0.162059)
(1.45191 0 0.157561)
(1.46046 -2.81022e-18 0.152635)
(1.46982 0 0.147227)
(1.48014 -2.64554e-18 0.141235)
(1.49169 1.57676e-25 0.134539)
(1.50465 2.68457e-18 0.126975)
(1.51929 -1.4779e-24 0.118349)
(1.53579 2.94593e-18 0.108434)
(1.55417 -4.9597e-26 0.0969724)
(1.57418 2.37966e-24 0.0836922)
(1.59541 0 0.0683288)
(1.61716 2.26392e-18 0.0506541)
(1.63778 1.32225e-18 0.030484)
(1.66007 1.58942e-26 0.00777306)
(1.67867 -9.4465e-19 -0.0175641)
(1.69346 1.46434e-25 -0.0453985)
(1.70267 -1.59146e-25 -0.075497)
(1.704 -4.44623e-25 -0.107454)
(1.69462 -8.70742e-18 -0.14062)
(1.67175 -6.14712e-25 -0.174112)
(1.63363 0 -0.206913)
(1.58121 0 -0.238198)
(1.51673 2.13852e-17 -0.267423)
(1.42951 -3.97696e-22 -0.291496)
(1.28092 0 -0.299039)
(1.10143 2.0857e-17 -0.29232)
(0.992431 4.08174e-22 -0.299794)
(0.813551 -3.18641e-17 -0.279083)
(0.531712 3.88683e-17 -0.207004)
(0.124086 -2.33493e-17 -0.0548817)
(-0.427095 2.7463e-17 0.214903)
(-1.16906 0 0.671477)
(-2.12505 -3.40596e-17 1.39903)
(-3.28908 -1.708e-17 2.49579)
(-4.61889 -5.7006e-21 4.06638)
(-6.01459 4.80713e-23 6.19235)
(-7.32448 1.03818e-22 8.89997)
(-8.37532 -6.50091e-18 12.1354)
(-9.0194 -2.91264e-17 15.7668)
(-9.18052 -1.58359e-21 19.622)
(-8.87066 1.08899e-21 23.5477)
(-8.17038 2.86373e-17 27.4588)
(-7.19081 2.16212e-21 31.3645)
(-6.04129 -5.82419e-18 35.3915)
(-4.80332 3.31144e-18 39.774)
(-3.52669 -1.73977e-18 44.8395)
(-2.15801 -8.70483e-19 49.7857)
(-0.830661 -2.15489e-19 55.6518)
(0.834363 -8.90089e-22 54.865)
(2.41733 9.68269e-19 51.1358)
(4.02096 2.05185e-18 47.529)
(5.6592 4.15306e-18 44.5864)
(7.32673 3.0689e-21 41.8937)
(9.0017 3.76537e-21 39.1252)
(10.6153 -3.28814e-21 36.1615)
(12.0825 3.032e-21 33.0038)
(13.3093 -5.17873e-21 29.6712)
(14.1397 7.26319e-17 26.092)
(14.3566 -6.13779e-17 22.1862)
(14.0314 -1.02077e-16 18.3501)
(13.2787 8.35107e-17 14.8328)
(12.2873 1.34587e-16 11.8165)
(11.1587 -2.15294e-16 9.30151)
(10.0856 -1.70822e-16 7.32494)
(9.15732 0 5.81587)
(8.29209 -1.93686e-22 4.6193)
(7.40484 -8.27074e-17 3.62823)
(6.69807 1.29895e-16 2.88836)
(6.13818 -1.02262e-16 2.32848)
(5.64856 2.04178e-21 1.88285)
(5.21498 0 1.52385)
(4.84568 0 1.2363)
(4.47438 -1.64649e-16 0.991444)
(4.1503 8.5513e-22 0.792241)
(3.86385 -5.86568e-22 0.628422)
(3.59291 0 0.490515)
(3.34805 -2.07902e-24 0.375807)
(3.11716 1.49969e-25 0.27936)
(2.89603 1.55498e-24 0.198378)
(2.69765 5.96942e-25 0.131576)
(2.51249 -5.4931e-25 0.0763578)
(2.34139 2.65625e-26 0.0311933)
(2.18364 1.59044e-18 -0.00532709)
(2.03611 5.46485e-18 -0.0344185)
(1.90151 9.45232e-18 -0.05721)
(1.77742 -1.64605e-17 -0.0746619)
(1.66211 2.88576e-17 -0.0876169)
(1.5553 -2.01361e-25 -0.0968704)
(1.4558 1.12913e-17 -0.103094)
(1.36218 2.0122e-17 -0.106821)
(1.27298 -1.78301e-23 -0.108485)
(1.18673 -4.78686e-25 -0.108414)
(1.10191 2.31249e-25 -0.106827)
(1.0161 -1.68137e-25 -0.103755)
(0.928592 1.79951e-25 -0.099328)
(0.83946 0 -0.0936816)
(0.747874 0 -0.0868258)
(0.654205 -2.38401e-18 -0.0788705)
(0.559601 1.12935e-18 -0.0699668)
(0.466498 2.99907e-26 -0.0604551)
(0.376681 9.30233e-19 -0.0505748)
(0.293469 0 -0.0408258)
(0.212476 2.73215e-18 -0.0307495)
(0.137095 0 -0.0209113)
(0.079657 -2.41812e-18 -0.0130954)
(0.0368006 1.51056e-18 -0.00703037)
(0.00546642 -1.84897e-18 -0.00242842)
(-0.0192221 1.16386e-23 0.00127016)
(-0.0311293 1.34525e-18 0.00369186)
(-0.143893 3.27517e-24 0.0200394)
(-0.457069 1.80063e-24 0.064291)
(-0.873984 1.11952e-18 0.100439)
(23.7633 0 3.66388)
(31.7994 0 4.64418)
(36.1391 0 5.19351)
(39.5485 -1.43948e-23 5.42169)
(42.1714 -8.9787e-24 5.36228)
(44.0042 0 5.11024)
(45.2818 -4.61288e-24 4.80681)
(46.356 0 4.56506)
(47.429 -3.12363e-24 4.43198)
(48.2456 -5.92175e-25 4.40315)
(48.7003 0 4.46125)
(49.0124 8.54742e-25 4.59219)
(49.3069 0 4.78189)
(49.5748 -2.52906e-24 5.01658)
(49.8074 0 5.28484)
(50.0037 -1.21915e-25 5.57684)
(50.165 -5.77254e-25 5.88328)
(50.2928 3.19644e-25 6.19514)
(50.388 0 6.504)
(50.4542 0 6.80274)
(50.5024 -5.16896e-27 7.08642)
(50.5501 0 7.35225)
(50.6069 1.22938e-27 7.59754)
(50.663 -5.45413e-27 7.81863)
(50.6994 0 8.0126)
(50.7084 8.84943e-28 8.17921)
(50.6987 0 8.32116)
(50.684 0 8.44177)
(50.6736 2.67865e-33 8.54407)
(50.6697 -2.86692e-33 8.63068)
(50.6709 -7.75153e-29 8.70367)
(50.6746 0 8.76505)
(50.6793 0 8.81624)
(50.6825 1.58879e-29 8.85866)
(50.6832 0 8.89324)
(50.683 0 8.92044)
(50.6833 -4.05098e-30 8.94155)
(50.6833 3.47188e-30 8.95864)
(50.6832 1.82657e-30 8.97328)
(50.6831 0 8.98583)
(50.6831 0 8.99616)
(50.6832 5.24417e-31 9.00439)
(50.6834 0 9.0109)
(50.6837 0 9.01605)
(50.6841 -1.44179e-31 9.02009)
(50.6848 0 9.02318)
(50.6853 0 9.02524)
(50.6872 2.17849e-33 9.02658)
(50.6872 4.74432e-32 9.02658)
(50.6853 0 9.02524)
(50.6848 0 9.02318)
(50.6841 0 9.02009)
(50.6837 5.96226e-31 9.01605)
(50.6834 0 9.0109)
(50.6832 0 9.00439)
(50.6831 1.1633e-30 8.99616)
(50.6831 0 8.98583)
(50.6832 8.70065e-30 8.97328)
(50.6833 0 8.95864)
(50.6832 -6.86491e-30 8.94155)
(50.683 0 8.92044)
(50.6832 -1.5189e-29 8.89324)
(50.6825 0 8.85866)
(50.6793 0 8.81624)
(50.6748 -2.54904e-28 8.76505)
(50.6714 0 8.70367)
(50.67 -1.26299e-27 8.63068)
(50.6738 -1.13377e-27 8.54407)
(50.6844 3.07569e-27 8.44177)
(50.6991 0 8.32116)
(50.7088 -5.38091e-27 8.17921)
(50.6996 -7.51443e-27 8.0126)
(50.663 -6.3388e-27 7.81863)
(50.607 0 7.59755)
(50.5502 0 7.35225)
(50.5026 -1.07223e-25 7.08643)
(50.4543 0 6.80276)
(50.3881 0 6.50402)
(50.2929 0 6.19518)
(50.165 0 5.88335)
(50.0036 0 5.57695)
(49.8072 -3.75709e-24 5.285)
(49.5744 0 5.01682)
(49.3063 -4.5364e-24 4.78224)
(49.0112 -7.22628e-24 4.59269)
(48.6997 0 4.46187)
(48.2707 0 4.4038)
(47.4906 -5.12686e-24 4.43287)
(46.4444 1.02404e-23 4.5662)
(45.3813 -1.31854e-23 4.80831)
(44.097 -1.81274e-23 5.11264)
(42.249 -1.27491e-23 5.36654)
(39.6146 -1.7889e-23 5.42898)
(36.2 -2.6643e-23 5.20552)
(31.8672 -1.29389e-22 4.66918)
(24.2567 1.58239e-22 3.7423)
(2.91626 -3.11352e-18 0.462396)
(3.00918 -2.65137e-18 0.423605)
(2.90822 0 0.407297)
(2.83382 0 0.394434)
(2.80099 -2.95826e-18 0.386535)
(2.78144 -2.43854e-18 0.380102)
(2.76945 2.01921e-18 0.374225)
(2.76611 -3.36209e-18 0.369031)
(2.76938 -2.81729e-18 0.364186)
(2.77704 2.37899e-18 0.359349)
(2.78737 0 0.354254)
(2.79751 0 0.348493)
(2.80479 -3.03984e-18 0.341725)
(2.81279 -2.68312e-18 0.334373)
(2.82153 -5.74057e-25 0.326402)
(2.8311 -4.37397e-18 0.317776)
(2.84194 0 0.308465)
(2.85464 3.81424e-18 0.298423)
(2.8696 2.14991e-25 0.287526)
(2.88701 0 0.275567)
(2.90734 0 0.262305)
(2.93091 -3.62357e-18 0.247409)
(2.95821 -3.35038e-25 0.230492)
(2.98956 0 0.211103)
(3.02498 0 0.188726)
(3.06401 -9.46101e-18 0.162816)
(3.10582 0 0.132845)
(3.14909 -6.11395e-18 0.09834)
(3.19065 -3.57467e-18 0.0589116)
(3.23594 7.67835e-26 0.0144412)
(3.2746 -9.95386e-26 -0.035277)
(3.3064 -3.12594e-18 -0.09005)
(3.32789 0 -0.149477)
(3.33463 -9.5624e-18 -0.212819)
(3.32096 1.19402e-17 -0.278887)
(3.28136 0 -0.346005)
(3.21219 1.88357e-17 -0.412221)
(3.11509 -2.37382e-17 -0.475942)
(2.99424 8.87105e-23 -0.536117)
(2.82812 3.77795e-17 -0.586506)
(2.5386 -4.76123e-17 -0.604114)
(2.18557 -2.75611e-23 -0.593012)
(1.975 -3.74943e-17 -0.610571)
(1.62388 4.66996e-17 -0.570609)
(1.0648 -5.76644e-17 -0.424781)
(0.25023 3.51046e-17 -0.112615)
(-0.857193 -3.16321e-22 0.445713)
(-2.35277 -4.83544e-17 1.39602)
(-4.28088 2.65738e-17 2.91572)
(-6.62373 2.68503e-17 5.21058)
(-9.28553 -2.30533e-17 8.49649)
(-12.0542 3.4149e-22 12.936)
(-14.6195 -3.62713e-22 18.5709)
(-16.6417 9.32171e-18 25.2749)
(-17.8479 1.91985e-17 32.7634)
(-18.1129 0 40.6681)
(-17.4767 5.47592e-21 48.6435)
(-16.0962 -1.19224e-17 56.4367)
(-14.1691 -1.2591e-20 63.8977)
(-11.8792 3.25321e-18 70.959)
(-9.36727 1.53797e-18 77.5886)
(-6.75051 5.39982e-21 83.7464)
(-4.06213 -9.62032e-19 88.9614)
(-1.68494 1.47707e-19 94.6601)
(0.872561 1.53328e-19 94.9457)
(3.47406 -3.54699e-19 92.0858)
(6.3535 3.17509e-21 88.255)
(9.52462 -4.40664e-21 84.1056)
(12.8859 7.60678e-21 79.7037)
(16.3475 -9.25496e-21 75.063)
(19.7918 9.18393e-21 70.0862)
(23.0273 0 64.5959)
(25.7948 -3.60288e-17 58.4753)
(27.8035 -6.56409e-17 51.7438)
(28.8148 2.20719e-20 44.6028)
(28.7071 1.02974e-16 37.377)
(27.5873 -2.74427e-21 30.5133)
(25.7828 -2.21421e-21 24.4382)
(23.6579 1.24292e-16 19.3638)
(21.521 1.02209e-16 15.3069)
(19.5127 4.77867e-23 12.12)
(17.5757 1.00476e-21 9.57124)
(15.6077 1.05859e-16 7.47566)
(14.01 -1.69328e-16 5.9095)
(12.73 2.69634e-16 4.7288)
(11.6213 -1.07902e-16 3.79829)
(10.65 1.65614e-22 3.05521)
(9.82821 -1.38652e-16 2.46462)
(9.02205 1.11762e-16 1.96674)
(8.32503 3.95304e-22 1.56457)
(7.71492 -2.5706e-22 1.236)
(7.14559 5.99963e-17 0.961116)
(6.63584 0 0.733705)
(6.16017 0 0.543435)
(5.70906 -3.38178e-17 0.384359)
(5.30679 0 0.253602)
(4.93378 -3.3959e-25 0.145896)
(4.59105 3.86802e-25 0.0580685)
(4.27659 -3.11586e-25 -0.0127756)
(3.98385 -1.47449e-17 -0.0690568)
(3.71775 -2.549e-17 -0.11304)
(3.47328 0 -0.146655)
(3.24684 -3.88912e-17 -0.171548)
(3.03776 0 -0.189287)
(2.84355 0 -0.201175)
(2.66134 -4.09632e-24 -0.208265)
(2.48821 -1.2132e-17 -0.211398)
(2.32124 0 -0.2112)
(2.15739 0 -0.20808)
(1.99186 -4.55797e-25 -0.202114)
(1.82324 4.88806e-25 -0.193507)
(1.65152 0 -0.182552)
(1.47498 0 -0.169233)
(1.29415 3.26543e-18 -0.153744)
(1.11108 -7.76365e-19 -0.136409)
(0.930325 -8.27935e-26 -0.117851)
(0.755171 9.35072e-26 -0.0985897)
(0.592021 0 -0.0795617)
(0.432081 1.42561e-23 -0.059854)
(0.282057 0 -0.040548)
(0.166817 3.45209e-18 -0.0251862)
(0.0799756 -2.0033e-24 -0.0132254)
(0.0156892 2.69219e-18 -0.00409812)
(-0.035659 2.97077e-24 0.00332588)
(-0.0626512 0 0.00808054)
(-0.300778 -4.80353e-18 0.0423765)
(-0.960727 1.44986e-18 0.136107)
(-1.74218 1.70119e-18 0.198467)
(23.5022 1.85875e-24 3.63439)
(31.7557 1.7251e-22 4.63545)
(36.1103 5.7499e-23 5.18943)
(39.5233 1.84641e-23 5.41917)
(42.1504 1.27209e-23 5.36077)
(43.9858 1.77436e-23 5.10937)
(45.2648 1.90821e-23 4.80629)
(46.3413 -9.75833e-24 4.56469)
(47.4186 4.79284e-24 4.43173)
(48.2411 0 4.403)
(48.7001 -1.98633e-23 4.46117)
(49.0125 0 4.59213)
(49.3069 0 4.78185)
(49.5748 3.2889e-24 5.01656)
(49.8074 0 5.28482)
(50.0036 0 5.57683)
(50.165 7.38913e-25 5.88327)
(50.2928 -4.10284e-25 6.19514)
(50.388 0 6.504)
(50.4542 0 6.80274)
(50.5024 1.07523e-25 7.08642)
(50.5501 0 7.35225)
(50.6069 0 7.59754)
(50.6629 6.34746e-27 7.81863)
(50.6993 1.43909e-26 8.0126)
(50.7083 0 8.17921)
(50.6986 3.28978e-27 8.32116)
(50.684 0 8.44177)
(50.6735 0 8.54407)
(50.6696 1.46993e-27 8.63068)
(50.6707 0 8.70367)
(50.6746 0 8.76505)
(50.6793 0 8.81624)
(50.6825 -7.16749e-29 8.85866)
(50.6832 0 8.89324)
(50.683 0 8.92044)
(50.6833 1.8053e-29 8.94155)
(50.6833 -4.04086e-30 8.95864)
(50.6832 2.69743e-30 8.97328)
(50.6831 0 8.98583)
(50.6831 0 8.99616)
(50.6832 -7.86018e-31 9.00439)
(50.6834 1.00785e-30 9.0109)
(50.6837 6.34366e-31 9.01605)
(50.6841 1.89363e-31 9.02009)
(50.6848 0 9.02318)
(50.6853 0 9.02524)
(50.6872 -4.50381e-32 9.02658)
(50.6872 -6.22528e-32 9.02658)
(50.6853 -2.00784e-31 9.02524)
(50.6848 0 9.02318)
(50.6841 0 9.02009)
(50.6837 -7.82423e-31 9.01605)
(50.6834 -2.48822e-30 9.0109)
(50.6832 0 9.00439)
(50.6832 0 8.99616)
(50.6831 0 8.98583)
(50.6832 7.73063e-30 8.97328)
(50.6832 0 8.95864)
(50.6832 0 8.94155)
(50.683 0 8.92044)
(50.6832 0 8.89324)
(50.6825 0 8.85866)
(50.6793 -1.92591e-28 8.81624)
(50.675 1.62776e-27 8.76505)
(50.6715 0 8.70367)
(50.67 1.16348e-27 8.63068)
(50.6738 0 8.54407)
(50.6845 1.07199e-26 8.44177)
(50.6992 1.59982e-26 8.32116)
(50.7089 -1.71924e-26 8.17921)
(50.6996 8.44967e-27 8.0126)
(50.663 -3.31028e-26 7.81863)
(50.607 6.68005e-26 7.59755)
(50.5503 0 7.35225)
(50.5026 4.15611e-25 7.08643)
(50.4543 0 6.80276)
(50.3881 1.09775e-24 6.50403)
(50.2929 -2.07087e-24 6.19519)
(50.165 3.68456e-24 5.88336)
(50.0035 -6.08721e-24 5.57697)
(49.8071 -4.66129e-24 5.28503)
(49.5742 1.39055e-23 5.01686)
(49.306 0 4.78229)
(49.0107 3.33742e-23 4.59275)
(48.6993 -4.75681e-23 4.46197)
(48.2841 -3.75289e-23 4.404)
(47.5266 0 4.43321)
(46.4979 -1.43171e-23 4.56666)
(45.4419 1.84803e-23 4.80897)
(44.1521 2.54331e-23 5.11378)
(42.2921 0 5.36866)
(39.6481 1.82949e-28 5.43271)
(36.2307 -8.31122e-28 5.21185)
(31.9005 1.65989e-22 4.68237)
(24.4896 9.32935e-27 3.78266)
(5.50845 -2.09173e-18 0.860891)
(5.39902 3.80656e-18 0.759773)
(5.1724 -1.20091e-23 0.723831)
(5.00017 9.66743e-24 0.695029)
(4.90265 2.095e-18 0.675679)
(4.83276 3.43299e-18 0.659624)
(4.77974 2.82561e-18 0.645182)
(4.7452 4.67703e-18 0.632494)
(4.72516 3.89713e-18 0.620926)
(4.71554 0 0.609841)
(4.71306 0 0.598737)
(4.71266 4.75861e-18 0.586893)
(4.70967 4.12944e-18 0.573702)
(4.70987 -3.63282e-18 0.559839)
(4.71307 6.48883e-18 0.545215)
(4.71926 5.89021e-18 0.529738)
(4.72896 -6.44586e-25 0.513334)
(4.74299 0 0.495896)
(4.76189 4.90063e-18 0.477203)
(4.78587 0 0.456894)
(4.81561 -4.76307e-18 0.434549)
(4.85157 0 0.409603)
(4.89446 -5.00855e-18 0.381406)
(4.94481 6.33435e-25 0.34919)
(5.00256 -6.84278e-25 0.312088)
(5.06698 6.30375e-18 0.269177)
(5.13669 -7.09748e-18 0.219556)
(5.20955 4.07612e-18 0.162414)
(5.28033 2.38495e-18 0.097068)
(5.3581 0 0.0232771)
(5.42576 0 -0.0593602)
(5.48298 -4.16064e-24 -0.150592)
(5.52406 1.03406e-17 -0.249828)
(5.54163 -1.35002e-23 -0.355938)
(5.52619 -4.09057e-24 -0.467019)
(5.4684 4.5928e-24 -0.58038)
(5.36178 -2.56884e-17 -0.692792)
(5.20856 3.25815e-17 -0.80163)
(5.01521 4.68816e-23 -0.905029)
(4.74485 -2.40691e-23 -0.992342)
(4.26305 -3.1288e-23 -1.024)
(3.66909 0 -1.00612)
(3.3203 5.37913e-17 -1.03771)
(2.73307 -1.25666e-22 -0.970903)
(1.79393 8.42512e-17 -0.722998)
(0.424492 -5.17994e-17 -0.191078)
(-1.43303 1.14556e-23 0.758984)
(-3.925 1.43683e-16 2.36798)
(-7.09847 -3.91018e-17 4.91726)
(-10.8827 -9.96332e-22 8.71266)
(-15.066 3.14458e-17 14.0378)
(-19.2554 7.53127e-22 21.0402)
(-22.9364 -1.39592e-21 29.6297)
(-25.6044 -9.01337e-18 39.4423)
(-26.9101 1.57864e-17 49.906)
(-26.748 -4.4024e-21 60.3845)
(-25.2458 6.17705e-18 70.3279)
(-22.6844 6.55563e-18 79.3586)
(-19.3986 6.03204e-21 87.2828)
(-15.7045 -1.59448e-18 94.0535)
(-11.8561 -2.96272e-18 99.6877)
(-8.09181 -1.06217e-20 104.293)
(-4.49049 3.1871e-19 107.831)
(-1.51226 -4.44871e-21 111.086)
(1.63829 -2.32776e-19 112.596)
(4.7907 6.79829e-19 112.617)
(8.40842 -2.96219e-22 111.779)
(12.6071 9.35492e-19 110.044)
(17.2575 1.20372e-20 107.216)
(22.2266 9.96496e-21 103.205)
(27.3148 -1.11436e-17 97.8932)
(32.2019 -1.19548e-17 91.2089)
(36.4796 2.45837e-17 83.2372)
(39.737 -4.77866e-17 74.2356)
(41.7138 4.46111e-17 64.6845)
(42.221 -9.89915e-21 54.9737)
(41.3064 -4.245e-21 45.6082)
(39.2761 1.22469e-16 37.0954)
(36.6492 3.28025e-21 29.8352)
(33.7927 -8.74836e-17 23.8653)
(30.8718 1.44413e-16 19.0154)
(27.9241 7.24626e-23 15.0659)
(25.1667 -1.00401e-16 11.9316)
(22.8206 -6.69366e-22 9.52362)
(20.8539 -1.38538e-16 7.66403)
(19.1856 1.14966e-16 6.20453)
(17.6815 0 5.02033)
(16.3612 1.12272e-22 4.06233)
(15.0617 5.95063e-23 3.25203)
(13.9165 3.95236e-23 2.59134)
(12.8995 8.92524e-17 2.04811)
(11.9449 -7.41794e-17 1.59246)
(11.0848 -1.41571e-23 1.21467)
(10.2818 1.87481e-23 0.898587)
(9.52147 4.32283e-17 0.634514)
(8.8427 3.63882e-17 0.417571)
(8.21411 -1.53883e-17 0.23905)
(7.63786 0 0.0936849)
(7.11034 0 -0.023416)
(6.62042 9.67478e-18 -0.116339)
(6.17589 1.67819e-17 -0.188866)
(5.76838 -2.92985e-17 -0.244241)
(5.39183 2.5744e-17 -0.285217)
(5.04496 -2.27635e-17 -0.314417)
(4.72355 -1.13307e-24 -0.33399)
(4.42279 -1.80846e-17 -0.345702)
(4.13775 -1.62008e-17 -0.35094)
(3.86353 -9.33697e-25 -0.350728)
(3.59503 0 -0.345767)
(3.32421 1.14335e-17 -0.336136)
(3.04859 0 -0.322197)
(2.76796 8.39537e-25 -0.304374)
(2.47924 -1.54031e-24 -0.282647)
(2.18299 -4.44913e-18 -0.25729)
(1.88224 -1.06213e-18 -0.228825)
(1.58416 0 -0.198246)
(1.29383 1.78379e-18 -0.166383)
(1.02169 0 -0.13478)
(0.752733 -2.68333e-18 -0.101846)
(0.498254 0 -0.069371)
(0.301031 -4.89468e-18 -0.0433901)
(0.150819 -3.11136e-18 -0.0230155)
(0.0381794 -3.88211e-18 -0.00732035)
(-0.0529658 -2.39751e-18 0.00560075)
(-0.105773 1.1123e-23 0.0143135)
(-0.533849 -2.74321e-23 0.0761847)
(-1.69453 -2.1576e-18 0.241637)
(-2.78141 -9.01857e-22 0.31077)
(23.1239 0 3.58643)
(31.6953 -2.5879e-22 4.62147)
(36.073 -8.40243e-23 5.18318)
(39.4907 2.95239e-28 5.41546)
(42.1251 -6.64522e-29 5.35864)
(43.9656 -7.37434e-23 5.10821)
(45.2474 -1.74345e-23 4.8056)
(46.3266 1.32296e-23 4.5642)
(47.4079 0 4.43138)
(48.2367 3.25128e-23 4.4028)
(48.7001 2.5174e-23 4.46106)
(49.0127 -4.49426e-23 4.59205)
(49.3069 0 4.78179)
(49.5748 1.68408e-23 5.01652)
(49.8074 0 5.2848)
(50.0036 0 5.57681)
(50.165 -3.74405e-24 5.88326)
(50.2928 2.08745e-24 6.19513)
(50.388 -1.10434e-24 6.50399)
(50.4542 5.61179e-25 6.80274)
(50.5024 -1.3911e-25 7.08642)
(50.5501 0 7.35225)
(50.6069 -6.70282e-26 7.59754)
(50.6629 3.31631e-26 7.81863)
(50.6993 -1.26293e-26 8.0126)
(50.7083 1.45688e-26 8.17921)
(50.6986 -8.0184e-27 8.32116)
(50.684 0 8.44177)
(50.6735 0 8.54407)
(50.6696 -1.39809e-27 8.63068)
(50.6707 0 8.70367)
(50.6746 0 8.76505)
(50.6793 1.97778e-28 8.81624)
(50.6825 1.88727e-28 8.85866)
(50.6832 0 8.89324)
(50.6831 0 8.92044)
(50.6833 -1.56815e-29 8.94155)
(50.6833 0 8.95864)
(50.6832 -2.1342e-29 8.97328)
(50.6831 9.76891e-30 8.98583)
(50.6831 0 8.99616)
(50.6832 0 9.00439)
(50.6834 1.33663e-30 9.0109)
(50.6837 -8.32625e-31 9.01605)
(50.6841 0 9.02009)
(50.6848 0 9.02318)
(50.6853 2.24213e-31 9.02524)
(50.6872 5.91123e-32 9.02658)
(50.6872 0 9.02658)
(50.6853 2.63222e-31 9.02524)
(50.6848 0 9.02318)
(50.6841 0 9.02009)
(50.6838 0 9.01605)
(50.6834 3.26238e-30 9.0109)
(50.6832 -1.01554e-29 9.00439)
(50.6832 0 8.99616)
(50.6832 0 8.98583)
(50.6832 -2.01506e-29 8.97328)
(50.6832 0 8.95864)
(50.6832 0 8.94155)
(50.6829 1.43369e-28 8.92044)
(50.6831 0 8.89324)
(50.6825 0 8.85866)
(50.6794 2.52605e-28 8.81624)
(50.6752 -1.84787e-27 8.76505)
(50.6715 0 8.70367)
(50.6701 -4.20925e-27 8.63068)
(50.6739 0 8.54407)
(50.6845 -9.07221e-27 8.44177)
(50.6993 1.33546e-26 8.32116)
(50.7089 1.49968e-26 8.17921)
(50.6996 -4.35233e-26 8.01261)
(50.663 4.30862e-26 7.81864)
(50.607 -8.6658e-26 7.59755)
(50.5503 3.51382e-25 7.35226)
(50.5027 -3.55784e-25 7.08643)
(50.4544 0 6.80276)
(50.3882 1.38888e-24 6.50403)
(50.2929 7.79867e-24 6.1952)
(50.165 4.59186e-24 5.88338)
(50.0035 7.53678e-24 5.57699)
(49.807 1.14533e-23 5.28507)
(49.574 -1.67254e-23 5.01691)
(49.3057 4.93412e-23 4.78236)
(49.0101 -3.79365e-23 4.59284)
(48.6987 -5.65543e-23 4.46211)
(48.3005 5.10866e-23 4.40426)
(47.576 0 4.43366)
(46.5732 -8.03113e-23 4.56731)
(45.5271 -1.03513e-22 4.80992)
(44.2293 0 5.11542)
(42.3528 0 5.37171)
(39.697 9.96014e-28 5.43809)
(36.2789 3.9847e-22 5.22101)
(31.9585 6.48882e-27 4.70131)
(24.8355 0 3.83638)
(9.01998 6.17431e-23 1.3989)
(8.69588 3.35946e-23 1.22364)
(8.30149 0 1.16128)
(8.00004 -2.45595e-23 1.11119)
(7.80665 4.0889e-23 1.07509)
(7.65735 4.40668e-18 1.04441)
(7.53682 -3.63507e-18 1.0167)
(7.44759 1.16619e-23 0.992161)
(7.3838 5.01482e-18 0.969859)
(7.33923 -3.96693e-24 0.948814)
(7.30877 7.86696e-26 0.928242)
(7.28471 -6.10188e-18 0.907035)
(7.25985 2.54471e-24 0.884244)
(7.2425 -4.64605e-24 0.860827)
(7.23207 -8.29944e-18 0.836605)
(7.22829 -3.59652e-24 0.811397)
(7.23164 1.64646e-24 0.785045)
(7.24305 0 0.757343)
(7.26324 -6.24873e-18 0.727936)
(7.29246 0 0.696258)
(7.33161 6.06403e-18 0.661649)
(7.38125 -6.1519e-18 0.62323)
(7.44234 0 0.57999)
(7.51559 -6.72805e-18 0.530748)
(7.60087 -9.05367e-25 0.474164)
(7.69701 9.13825e-25 0.408823)
(7.80195 9.0051e-18 0.333333)
(7.9125 5.17054e-18 0.246439)
(8.02101 4.92169e-25 0.14707)
(8.14053 8.86147e-26 0.0347985)
(8.24615 1.22432e-25 -0.0910244)
(8.33717 1.06398e-17 -0.2301)
(8.40504 -1.31561e-17 -0.381628)
(8.43893 1.64149e-17 -0.544013)
(8.4249 1.04715e-23 -0.714549)
(8.34885 1.40789e-24 -0.889318)
(8.20052 -1.51041e-23 -1.06358)
(7.98195 4.27123e-17 -1.2333)
(7.70121 -5.49632e-17 -1.39542)
(7.30021 -7.09609e-17 -1.53318)
(6.56712 9.22509e-17 -1.58425)
(5.64363 -5.99764e-17 -1.55455)
(5.10019 -1.52494e-16 -1.60116)
(4.18803 -9.63894e-17 -1.49379)
(2.74001 -1.20993e-16 -1.10712)
(0.651497 0 -0.289766)
(-2.13709 0 1.14715)
(-5.79046 -1.00558e-16 3.52972)
(-10.2878 1.03901e-16 7.19688)
(-15.4096 0 12.4532)
(-20.7347 -3.40358e-17 19.4839)
(-25.6569 -7.50213e-18 28.2319)
(-29.5259 -3.1258e-18 38.352)
(-31.8291 0 49.2646)
(-32.3235 -8.36022e-20 60.2815)
(-31.0733 6.51983e-18 70.7542)
(-28.3867 -3.67484e-18 80.1936)
(-24.701 -3.87347e-20 88.3243)
(-20.4626 -1.89301e-18 95.07)
(-16.0488 9.12742e-19 100.502)
(-11.7316 8.66856e-19 104.757)
(-7.71446 3.74351e-19 108.036)
(-4.03923 -1.74876e-19 110.474)
(-0.939993 8.57559e-20 112.407)
(2.33042 1.83871e-19 114.442)
(5.60789 1.91215e-19 116.394)
(9.47038 -4.55092e-19 118.206)
(14.1834 3.05798e-21 119.508)
(19.6809 2.51357e-18 119.885)
(25.8568 -4.53246e-20 118.971)
(32.5163 7.5411e-20 116.363)
(39.2657 7.4856e-18 111.605)
(45.5036 -1.61719e-17 104.391)
(50.4509 9.38062e-20 94.6893)
(53.5177 0 83.2016)
(54.5427 6.36974e-17 71.0773)
(53.6972 6.86008e-21 59.2874)
(51.3654 -1.98977e-16 48.4864)
(48.1321 0 39.14)
(44.5053 1.40283e-16 31.3775)
(40.7766 -1.15994e-16 25.0592)
(37.0965 0 19.9577)
(33.857 0 15.995)
(31.0615 0 12.9098)
(28.6509 -1.18216e-16 10.4826)
(26.6129 -1.52662e-21 8.56562)
(24.7386 0 6.98962)
(23.0212 2.83946e-16 5.68768)
(21.4481 -1.2206e-16 4.60752)
(20.0345 -1.04685e-16 3.71142)
(18.7411 -8.94347e-17 2.96018)