/*--------------------------------*- C++ -*----------------------------------*\
| =========                 |                                                 |
| \\      /  F ield         | OpenFOAM: The Open Source CFD Toolbox           |
|  \\    /   O peration     | Version:  2112                                  |
|   \\  /    A nd           | Website:  www.openfoam.com                      |
|    \\/     M anipulation  |                                                 |
\*---------------------------------------------------------------------------*/
FoamFile
{
    version     2.0;
    format      ascii;
    arch        "LSB;label=32;scalar=64";
    class       volScalarField;
    location    "1402";
    object      k;
}
// * * * * * * * * * * * * * * * * * * * * * * * * * * * * * * * * * * * * * //

dimensions      [0 2 -2 0 0 0 0];

internalField   nonuniform List<scalar> 
14336
(
0.000703124
0.000728305
0.000750381
0.000769528
0.000786016
0.000800194
0.000812481
0.000823316
0.000833378
0.000843258
0.000853504
0.000864454
0.000876007
0.000887583
0.000898308
0.000907425
0.000914693
0.000920485
0.000925563
0.000930666
0.000936146
0.00094201
0.000949309
0.000963727
0.000999338
0.00108352
0.00127249
0.0016821
0.00255561
0.00441718
0.00841107
0.0170604
0.0359619
0.0774795
0.168225
0.361355
0.748129
1.44416
2.51423
3.87799
5.28566
6.42483
7.1862
7.59379
7.73246
7.67329
7.26836
4.79876
0.00809845
0.00947385
0.0100599
0.0105379
0.0110148
0.0114499
0.0118631
0.0122536
0.0126008
0.0129293
0.0132434
0.0135432
0.0138284
0.0140986
0.0143557
0.0146021
0.0148453
0.0150962
0.015352
0.0156091
0.0158699
0.0161342
0.0164008
0.0166726
0.0169405
0.0171857
0.0173955
0.0175394
0.0175972
0.0175371
0.0173374
0.0169691
0.0164046
0.0156336
0.0146616
0.01348
0.0120989
0.0105547
0.00885415
0.00711129
0.00540238
0.00371342
0.00244727
0.00157629
0.000596013
4.03241e-06
0.000856267
0.00533896
0.0175774
0.0443082
0.0953462
0.182605
0.317607
0.513044
0.808659
1.2536
1.78617
2.40986
3.0714
3.72489
4.43209
5.29
6.32485
8.07753
7.84415
6.96512
6.10361
5.51204
5.17117
4.89969
4.59312
4.2421
3.85172
3.42708
2.98199
2.45688
1.98079
1.57421
1.23415
0.962871
0.757352
0.604277
0.482826
0.388301
0.315484
0.258992
0.214535
0.17971
0.151661
0.128559
0.109741
0.0943902
0.0816071
0.0709891
0.0619442
0.0542217
0.0475612
0.041784
0.0367129
0.0323248
0.0284957
0.0251382
0.0221888
0.0196142
0.0173594
0.015382
0.0136358
0.0120771
0.0106723
0.00939759
0.00823474
0.00717164
0.0061937
0.00529519
0.00447562
0.00373656
0.00307985
0.00250592
0.00201119
0.00158918
0.001234
0.000942314
0.000711554
0.000535062
0.000400333
0.000298277
0.000184819
3.05062e-05
4.25768
7.20217
7.65403
7.72529
7.59205
7.18754
6.42793
5.2895
3.88159
2.51686
1.44571
0.748896
0.361679
0.168347
0.0775217
0.0359762
0.0170653
0.00841273
0.00441776
0.00255581
0.00168218
0.00127252
0.00108353
0.000999341
0.000963728
0.000949309
0.000942011
0.000936146
0.000930666
0.000925563
0.000920485
0.000914693
0.000907425
0.000898308
0.000887583
0.000876007
0.000864454
0.000853504
0.000843258
0.000833378
0.000823316
0.000812481
0.000800195
0.000786017
0.000769528
0.000750382
0.000728306
0.000703125
0.000703123
0.000728305
0.000750381
0.000769527
0.000786016
0.000800194
0.00081248
0.000823316
0.000833378
0.000843258
0.000853504
0.000864454
0.000876007
0.000887583
0.000898308
0.000907425
0.000914693
0.000920485
0.000925563
0.000930666
0.000936146
0.00094201
0.000949309
0.000963726
0.000999336
0.00108352
0.00127247
0.00168205
0.00255547
0.00441678
0.00840988
0.0170568
0.0359506
0.0774448
0.168122
0.361073
0.747451
1.44277
2.51186
3.87474
5.2822
6.4221
7.18533
7.59631
7.74132
7.69648
7.34461
5.4032
0.0109752
0.0075022
0.00773144
0.00794499
0.00817872
0.00841517
0.00865572
0.008889
0.0090764
0.00924509
0.00939465
0.00952088
0.00962151
0.00969171
0.00973685
0.0097648
0.00981736
0.0099501
0.0101263
0.0103094
0.0104984
0.0106923
0.0108883
0.0110877
0.0112815
0.0114523
0.011588
0.0116611
0.0116528
0.0115346
0.0112882
0.0109106
0.01043
0.00980208
0.00898414
0.00796138
0.00676278
0.00544877
0.00406053
0.00274561
0.00162725
0.000742249
0.000300587
0.000188918
7.0585e-05
5.29828e-07
9.93056e-05
0.000609043
0.00197454
0.00490736
0.0104658
0.0199761
0.0359948
0.0772784
0.27345
0.883164
1.81397
3.25304
5.01073
6.92685
9.5407
13.5084
19.6958
28.9744
31.3967
29.2343
23.1974
18.9631
17.1673
16.0841
15.0045
13.9356
12.8498
11.671
10.3928
8.52091
6.7882
5.25597
3.94546
2.90757
2.1448
1.60471
1.19647
0.896537
0.678038
0.517799
0.398549
0.310229
0.242856
0.190557
0.150727
0.120505
0.0972427
0.0793717
0.0652251
0.0540084
0.045143
0.0381208
0.032298
0.0274837
0.0234557
0.0200552
0.0171604
0.014723
0.0126634
0.0109207
0.00943536
0.00815547
0.00704243
0.00606805
0.00521196
0.00447279
0.00383821
0.0032738
0.00276346
0.00230669
0.00190396
0.0015564
0.00126115
0.00101367
0.000809033
0.000643236
0.000512749
0.00041286
0.000337515
0.000277596
0.000196506
0.00194323
3.59836
7.10804
7.62871
7.71632
7.59027
7.18986
6.43265
5.29519
3.88687
2.52072
1.44799
0.750021
0.362157
0.168528
0.0775857
0.0359983
0.0170729
0.00841541
0.00441871
0.00255616
0.0016823
0.00127256
0.00108355
0.000999347
0.00096373
0.00094931
0.000942011
0.000936147
0.000930666
0.000925563
0.000920485
0.000914693
0.000907425
0.000898308
0.000887583
0.000876007
0.000864454
0.000853504
0.000843258
0.000833378
0.000823316
0.000812481
0.000800195
0.000786017
0.000769528
0.000750382
0.000728306
0.000703125
0.000703122
0.000728304
0.00075038
0.000769526
0.000786015
0.000800193
0.000812479
0.000823316
0.000833378
0.000843258
0.000853504
0.000864454
0.000876007
0.000887583
0.000898308
0.000907425
0.000914693
0.000920485
0.000925563
0.000930666
0.000936146
0.00094201
0.000949308
0.000963725
0.000999332
0.00108351
0.00127244
0.00168198
0.00255525
0.00441615
0.00840802
0.0170512
0.0359338
0.0773935
0.167971
0.36066
0.746459
1.44072
2.50836
3.86989
5.27695
6.41783
7.18374
7.59974
7.75416
7.73059
7.45464
6.10782
0.139825
0.0894221
0.0884512
0.0877632
0.0876117
0.0877891
0.088256
0.0888567
0.0891556
0.0894466
0.0897204
0.0899412
0.090095
0.0901764
0.0902531
0.0903758
0.0907682
0.0917434
0.093066
0.0945042
0.0960547
0.0977025
0.099419
0.101215
0.103003
0.104619
0.105947
0.106723
0.106767
0.105802
0.103646
0.100184
0.095486
0.0892725
0.0813529
0.0716331
0.0603049
0.0478815
0.0346924
0.0221937
0.0116833
0.00358163
0.000122135
4.25112e-05
1.53017e-05
6.03394e-07
2.13928e-05
0.000127826
0.00042597
0.00115611
0.00324383
0.00842854
0.0367267
0.361261
3.12946
11.1697
21.0654
32.6174
41.9482
46.9929
49.6543
50.4066
49.3957
47.818
51.8199
59.4702
70.3193
82.5048
92.6927
98.5782
100.923
101.055
99.2241
95.1493
88.8219
77.5167
65.1418
52.6792
41.0195
31.1097
23.3927
17.6754
13.2362
9.90863
7.45409
5.64517
4.30049
3.30888
2.55879
1.98283
1.54926
1.2244
0.978091
0.791933
0.647039
0.533432
0.443452
0.371548
0.312247
0.263716
0.223508
0.189871
0.16146
0.137736
0.117852
0.101163
0.0870515
0.0749878
0.0645791
0.0555375
0.047649
0.0408344
0.0349403
0.0297392
0.0251191
0.0210478
0.0174971
0.0144515
0.0118735
0.00971619
0.00793166
0.00648268
0.00533866
0.00446193
0.00380642
0.00327775
0.00245018
0.0240009
2.86675
6.95836
7.59017
7.70291
7.58739
7.19271
6.43873
5.30255
3.8937
2.52568
1.45092
0.751458
0.362765
0.168757
0.0776665
0.036026
0.0170825
0.00841874
0.0044199
0.00255659
0.00168246
0.00127262
0.00108357
0.000999355
0.000963733
0.000949311
0.000942011
0.000936147
0.000930666
0.000925563
0.000920485
0.000914693
0.000907425
0.000898308
0.000887583
0.000876007
0.000864454
0.000853504
0.000843259
0.000833378
0.000823316
0.000812482
0.000800195
0.000786017
0.000769529
0.000750382
0.000728306
0.000703125
0.000703121
0.000728302
0.000750379
0.000769525
0.000786014
0.000800192
0.000812478
0.000823316
0.000833378
0.000843258
0.000853504
0.000864454
0.000876007
0.000887583
0.000898308
0.000907425
0.000914693
0.000920485
0.000925563
0.000930665
0.000936146
0.000942009
0.000949307
0.000963723
0.000999327
0.00108349
0.0012724
0.00168186
0.00255492
0.00441522
0.0084053
0.0170432
0.0359096
0.0773206
0.167756
0.360077
0.745055
1.43783
2.50338
3.86294
5.26932
6.41155
7.18127
7.60446
7.7724
7.77896
7.60049
6.78233
1.05645
0.698302
0.66938
0.645268
0.627087
0.613028
0.602686
0.594932
0.586851
0.580329
0.5752
0.571131
0.567887
0.565301
0.563528
0.562682
0.563603
0.567504
0.573401
0.580322
0.588255
0.597092
0.606652
0.616996
0.627617
0.637532
0.646077
0.651686
0.653304
0.649264
0.638416
0.619718
0.592758
0.556156
0.509219
0.451334
0.383281
0.307722
0.225998
0.146836
0.0785595
0.0241875
0.00044513
3.16624e-05
9.53826e-06
3.90286e-06
1.77056e-05
9.65345e-05
0.000405674
0.00152023
0.0072013
0.0259978
0.138692
1.14868
6.18687
14.3503
18.034
19.9877
20.4417
19.5352
17.545
15.052
12.5636
10.6499
13.579
17.6487
23.7984
33.0874
45.2482
59.9091
75.3027
89.123
99.6224
106.153
108.606
106.309
100.433
91.4768
80.7282
69.6732
59.3902
50.2961
41.9622
34.6581
28.4487
23.2453
18.9138
15.388
12.4836
10.0823
8.15589
6.63336
5.42682
4.4801
3.71922
3.10571
2.60673
2.19818
1.85695
1.57543
1.34068
1.14323
0.9757
0.835261
0.717181
0.617821
0.533634
0.461537
0.399229
0.345012
0.297604
0.256351
0.220243
0.188258
0.159881
0.134903
0.113147
0.0944852
0.0786738
0.0654078
0.0543901
0.0454045
0.0382932
0.0328595
0.0288511
0.0256335
0.019865
0.186528
2.17056
6.72582
7.53173
7.68306
7.58298
7.19638
6.44678
5.31226
3.90267
2.53218
1.45473
0.753322
0.36355
0.169052
0.07777
0.0360614
0.0170946
0.00842297
0.00442139
0.00255712
0.00168266
0.00127269
0.0010836
0.000999364
0.000963736
0.000949312
0.000942012
0.000936147
0.000930666
0.000925563
0.000920485
0.000914693
0.000907425
0.000898308
0.000887584
0.000876007
0.000864454
0.000853504
0.000843259
0.000833378
0.000823317
0.000812482
0.000800196
0.000786018
0.000769529
0.000750383
0.000728307
0.000703126
0.000703119
0.000728301
0.000750377
0.000769523
0.000786012
0.00080019
0.000812477
0.000823315
0.000833378
0.000843258
0.000853504
0.000864454
0.000876007
0.000887583
0.000898308
0.000907425
0.000914693
0.000920485
0.000925563
0.000930665
0.000936145
0.000942009
0.000949306
0.00096372
0.000999319
0.00108347
0.00127234
0.00168169
0.00255445
0.00441389
0.00840147
0.0170319
0.0358759
0.0772194
0.16746
0.359271
0.743113
1.43382
2.49647
3.85323
5.25856
6.4026
7.17764
7.61097
7.79784
7.84514
7.78208
7.41645
3.9703
3.03217
2.8992
2.78125
2.6837
2.60177
2.53512
2.48043
2.42741
2.38323
2.34727
2.31824
2.29505
2.27682
2.26351
2.2551
2.2534
2.26113
2.27585
2.29511
2.31886
2.34662
2.37768
2.41222
2.44845
2.48298
2.51357
2.5349
2.54343
2.53346
2.50093
2.44125
2.35075
2.22466
2.06059
1.85472
1.60672
1.32242
1.00141
0.674144
0.375048
0.120197
0.00220237
0.000110895
3.13002e-05
2.18772e-05
7.15583e-05
0.000354318
0.00137804
0.00400145
0.011738
0.0291751
0.0957397
0.373762
1.25025
2.52157
3.04913
3.11119
2.88077
2.49334
2.05127
1.63088
1.2709
1.06684
2.21452
3.79555
5.80322
8.61958
12.875
19.7775
30.9074
46.1436
64.5539
82.7677
97.0687
104.789
106.148
102.099
94.1341
84.4806
74.6902
65.4654
57.0089
49.3768
42.7243
36.9896
32.0572
27.8827
24.2564
21.0555
18.2885
15.9121
13.857
12.0999
10.57
9.24232
8.08373
7.07009
6.17534
5.40024
4.72455
4.13255
3.61083
3.15823
2.76576
2.42622
2.1313
1.873
1.64514
1.44307
1.26317
1.10346
0.960536
0.831854
0.716229
0.613211
0.522464
0.443744
0.376325
0.31915
0.271164
0.231679
0.200301
0.176458
0.159287
0.145735
0.116949
0.917156
1.59141
6.37872
7.44331
7.65387
7.57646
7.20125
6.45761
5.32527
3.91461
2.54079
1.45975
0.755768
0.364577
0.169437
0.0779039
0.0361071
0.0171102
0.00842838
0.0044233
0.00255781
0.00168291
0.00127278
0.00108363
0.000999376
0.00096374
0.000949314
0.000942013
0.000936148
0.000930667
0.000925564
0.000920486
0.000914693
0.000907425
0.000898308
0.000887584
0.000876007
0.000864454
0.000853504
0.000843259
0.000833378
0.000823317
0.000812482
0.000800196
0.000786018
0.000769529
0.000750383
0.000728307
0.000703126
0.000703117
0.000728298
0.000750375
0.000769521
0.00078601
0.000800188
0.000812475
0.000823315
0.000833378
0.000843258
0.000853504
0.000864454
0.000876007
0.000887583
0.000898308
0.000907425
0.000914693
0.000920485
0.000925563
0.000930665
0.000936145
0.000942008
0.000949305
0.000963717
0.000999309
0.00108344
0.00127225
0.00168145
0.0025538
0.00441205
0.0083962
0.0170165
0.0358299
0.0770821
0.167058
0.358178
0.740475
1.42836
2.48706
3.83995
5.2437
6.39014
7.17251
7.61986
7.83249
7.93246
7.99775
8.01331
6.72032
5.83202
5.74838
5.66065
5.58219
5.51069
5.44887
5.39516
5.33566
5.28419
5.24167
5.20759
5.18114
5.16162
5.1491
5.1437
5.1475
5.16359
5.18961
5.22289
5.26343
5.31043
5.36253
5.41989
5.47935
5.53503
5.58313
5.61472
5.62392
5.6012
5.53965
5.43047
5.26426
5.03265
4.73094
4.34916
3.87963
3.32221
2.65698
1.92091
1.16958
0.420948
0.00850737
0.000436117
0.000130344
9.95836e-05
0.000299631
0.00115866
0.0027318
0.00480869
0.00826781
0.0118474
0.0185423
0.0360712
0.0767345
0.128511
0.151059
0.148604
0.132345
0.111128
0.0900693
0.0710796
0.0555324
0.0496117
0.260851
0.733142
1.38345
2.25899
3.47845
5.36639
8.65841
14.576
25.3805
41.9967
63.0257
82.9845
96.1272
100.679
98.2655
91.3994
82.9078
74.1649
65.5818
57.6933
50.7149
44.6271
39.3761
34.9169
31.0616
27.6632
24.7222
22.1785
19.9443
17.9965
16.2616
14.7203
13.3363
12.0842
10.9426
9.91978
8.99544
8.15434
7.38326
6.68705
6.05863
5.49296
4.98204
4.51706
4.09113
3.69913
3.33702
3.00274
2.69096
2.39963
2.12867
1.87882
1.6512
1.44711
1.26667
1.10897
0.972822
0.857971
0.764998
0.693898
0.643572
0.604314
0.50633
2.47814
1.18414
5.89232
7.30992
7.61115
7.567
7.20787
6.47238
5.34286
3.93068
2.55232
1.46644
0.75901
0.365931
0.169941
0.0780792
0.0361665
0.0171305
0.00843538
0.00442577
0.00255869
0.00168323
0.0012729
0.00108367
0.000999391
0.000963745
0.000949316
0.000942014
0.000936149
0.000930667
0.000925564
0.000920486
0.000914693
0.000907425
0.000898309
0.000887584
0.000876008
0.000864454
0.000853504
0.000843259
0.000833378
0.000823317
0.000812483
0.000800196
0.000786018
0.00076953
0.000750383
0.000728307
0.000703126
0.000703114
0.000728295
0.000750372
0.000769518
0.000786007
0.000800185
0.000812472
0.000823315
0.000833378
0.000843258
0.000853504
0.000864454
0.000876007
0.000887583
0.000898308
0.000907424
0.000914692
0.000920485
0.000925562
0.000930665
0.000936144
0.000942007
0.000949302
0.000963711
0.000999294
0.0010834
0.00127214
0.00168113
0.00255292
0.00440958
0.00838912
0.0169957
0.0357685
0.0768984
0.166522
0.356716
0.736939
1.42105
2.47444
3.82204
5.22346
6.37308
7.16544
7.63177
7.87843
8.04323
8.24358
8.55565
8.23437
7.43687
7.44426
7.42839
7.41713
7.40685
7.39963
7.39488
7.38631
7.3805
7.37879
7.38128
7.38765
7.39764
7.41156
7.42987
7.45451
7.4882
7.5295
7.57648
7.62939
7.6873
7.74858
7.8133
7.87775
7.9349
7.98028
8.00352
7.99764
7.95136
7.85649
7.70235
7.4764
7.16834
6.77301
6.27819
5.67256
4.95216
4.08007
3.08892
2.02896
0.844885
0.0210055
0.00123885
0.000439407
0.000371801
0.000918076
0.00212542
0.00315388
0.0038236
0.00427832
0.00443077
0.00456026
0.00493088
0.00562036
0.00626746
0.00639453
0.00608194
0.00554518
0.0049475
0.00437827
0.00388065
0.00353665
0.00346355
0.0230258
0.136017
0.328832
0.620716
1.03697
1.63949
2.58121
4.19979
7.35609
13.6757
26.1605
45.4078
67.7695
85.5544
93.5194
93.0687
87.6626
80.0807
71.8235
63.8219
56.5247
50.0357
44.3791
39.5532
35.4061
31.7838
28.6637
25.9741
23.6264
21.5766
19.7451
18.1125
16.6387
15.3039
14.0758
12.9611
11.9416
11.0076
10.1517
9.37047
8.65701
8.00673
7.41138
6.86166
6.35031
5.87192
5.42211
4.99818
4.59315
4.20596
3.83754
3.48943
3.16393
2.86379
2.59063
2.3447
2.12595
1.93566
1.77651
1.6504
1.5577
1.4819
1.29917
4.00435
0.971773
5.27201
7.11096
7.54891
7.55356
7.21711
6.49269
5.36683
3.95243
2.56785
1.47541
0.763339
0.367732
0.170609
0.0783101
0.0362445
0.017157
0.00844452
0.00442898
0.00255984
0.00168365
0.00127305
0.00108373
0.00099941
0.000963752
0.000949319
0.000942015
0.000936149
0.000930668
0.000925564
0.000920486
0.000914693
0.000907426
0.000898309
0.000887584
0.000876008
0.000864455
0.000853504
0.000843259
0.000833378
0.000823317
0.000812483
0.000800196
0.000786018
0.00076953
0.000750384
0.000728308
0.000703127
0.000703109
0.000728291
0.000750368
0.000769515
0.000786003
0.000800182
0.000812468
0.000823314
0.000833378
0.000843258
0.000853504
0.000864454
0.000876007
0.000887583
0.000898307
0.000907424
0.000914692
0.000920484
0.000925562
0.000930664
0.000936143
0.000942005
0.0009493
0.000963704
0.000999274
0.00108334
0.00127198
0.00168071
0.00255175
0.0044063
0.00837973
0.0169683
0.0356872
0.0766561
0.165814
0.354785
0.732261
1.41137
2.45773
3.79822
5.19628
6.35003
7.15576
7.64728
7.93728
8.17762
8.51112
9.0246
9.09534
8.3019
8.38127
8.40866
8.44467
8.48224
8.52155
8.56092
8.59355
8.62589
8.65916
8.69358
8.72898
8.76532
8.80303
8.84269
8.8861
8.93561
8.99013
9.04833
9.11018
9.17457
9.23971
9.30573
9.3686
9.42053
9.45664
9.46581
9.44003
9.36735
9.23838
9.04154
8.76308
8.39058
7.91813
7.33231
6.61889
5.77193
4.76621
3.62673
2.42397
1.05741
0.0295431
0.00210072
0.00106351
0.0010786
0.00190293
0.00273605
0.00313274
0.00330306
0.00339474
0.00342939
0.00341101
0.00335217
0.00326366
0.00315408
0.00302576
0.00288513
0.0027385
0.00258563
0.00243545
0.00231147
0.00223991
0.00223944
0.00324471
0.0242895
0.0779985
0.172737
0.322227
0.546514
0.885407
1.42164
2.35812
4.16266
8.05881
16.2716
32.0222
53.6678
74.123
85.6009
87.4805
83.5109
76.5222
68.8384
61.4185
54.5931
48.5351
43.3239
38.836
34.9151
31.5486
28.6572
26.1375
23.9526
22.0122
20.2888
18.7369
17.333
16.0483
14.883
13.8153
12.835
11.9344
11.1092
10.3527
9.66034
9.02344
8.43225
7.87928
7.35885
6.8663
6.39847
5.95109
5.5218
5.11047
4.71875
4.34924
4.00506
3.68838
3.40004
3.14058
2.91185
2.71715
2.55908
2.43979
2.3398
2.10055
5.18514
0.966081
4.58179
6.82452
7.45931
7.53501
7.23033
6.52091
5.39972
3.98206
2.58891
1.48753
0.769158
0.370142
0.171499
0.0786164
0.0363476
0.0171918
0.00845651
0.00443318
0.00256135
0.00168419
0.00127325
0.0010838
0.000999435
0.000963761
0.000949322
0.000942017
0.00093615
0.000930668
0.000925564
0.000920486
0.000914694
0.000907426
0.000898309
0.000887584
0.000876008
0.000864455
0.000853504
0.000843259
0.000833378
0.000823317
0.000812483
0.000800197
0.000786019
0.00076953
0.000750384
0.000728308
0.000703127
0.000703104
0.000728286
0.000750363
0.00076951
0.000785999
0.000800177
0.000812464
0.000823313
0.000833378
0.000843258
0.000853503
0.000864453
0.000876006
0.000887582
0.000898307
0.000907424
0.000914692
0.000920484
0.000925562
0.000930664
0.000936142
0.000942003
0.000949296
0.000963695
0.000999248
0.00108327
0.00127178
0.00168015
0.00255021
0.00440199
0.00836742
0.0169325
0.035581
0.0763398
0.16489
0.352262
0.726139
1.3987
2.43587
3.76693
5.16015
6.31918
7.1425
7.66648
8.00933
8.33205
8.7835
9.39582
9.58886
8.827
8.95375
8.98896
9.04084
9.09707
9.15643
9.21626
9.27179
9.32749
9.38297
9.43825
9.49293
9.54684
9.60034
9.65399
9.70947
9.76886
9.83122
9.89536
9.96128
10.0276
10.0921
10.1548
10.2114
10.2533
10.2754
10.2656
10.2153
10.1118
9.94482
9.70247
9.37142
8.93652
8.39055
7.71921
6.9059
5.94176
4.80462
3.52353
2.18697
0.884666
0.0236789
0.00248986
0.00186544
0.00222157
0.00283172
0.00312861
0.00324498
0.00326476
0.0032207
0.00313734
0.00302889
0.00290791
0.00277748
0.00264663
0.00250882
0.00236928
0.00222675
0.00206533
0.00191704
0.00181351
0.00175688
0.00174279
0.00180342
0.00467844
0.018124
0.0465086
0.0983027
0.184606
0.320036
0.531956
0.877804
1.48756
2.68489
5.1992
10.8182
22.5476
41.6276
62.6973
77.2167
81.5796
78.8668
72.7573
65.7017
58.7682
52.3928
46.8068
41.9558
37.6973
34.0411
30.9065
28.1815
25.8307
23.7528
21.9185
20.2745
18.7944
17.442
16.2193
15.1013
14.0766
13.1364
12.2747
11.485
10.7626
10.0982
9.48157
8.90492
8.36246
7.8493
7.36192
6.89514
6.44681
6.01708
5.60758
5.22092
4.86029
4.5281
4.22552
3.95347
3.71408
3.51069
3.34603
3.2239
3.1233
2.84572
6.10084
1.20098
3.95856
6.44741
7.33486
7.51095
7.25006
6.56055
5.44516
4.02265
2.61764
1.50399
0.777029
0.373388
0.172692
0.079025
0.0364844
0.017238
0.00847232
0.00443871
0.00256332
0.00168491
0.00127351
0.00108389
0.000999467
0.000963772
0.000949327
0.000942019
0.000936152
0.000930669
0.000925565
0.000920487
0.000914694
0.000907426
0.000898309
0.000887584
0.000876008
0.000864455
0.000853504
0.000843259
0.000833378
0.000823317
0.000812483
0.000800197
0.000786019
0.000769531
0.000750384
0.000728308
0.000703127
0.000703098
0.00072828
0.000750357
0.000769504
0.000785994
0.000800172
0.000812459
0.000823312
0.000833377
0.000843257
0.000853503
0.000864453
0.000876006
0.000887582
0.000898307
0.000907424
0.000914692
0.000920484
0.000925561
0.000930663
0.000936141
0.000942001
0.000949291
0.000963683
0.000999214
0.00108317
0.00127151
0.00167942
0.0025482
0.00439637
0.00835139
0.0168858
0.0354432
0.0759303
0.163696
0.349
0.718212
1.3823
2.40757
3.72622
5.11259
6.27814
7.12396
7.68824
8.09197
8.49654
9.03193
9.64411
9.83131
9.17236
9.33014
9.36341
9.42
9.48241
9.54893
9.6165
9.68064
9.74515
9.80956
9.87368
9.93685
9.99871
10.0594
10.1195
10.1803
10.2437
10.3087
10.374
10.4395
10.5035
10.5629
10.6176
10.6631
10.6898
10.6921
10.6579
10.578
10.4375
10.2266
9.93251
9.54122
9.03552
8.40616
7.63778
6.709
5.60572
4.31793
2.89824
1.51948
0.456116
0.00997312
0.00259126
0.00268412
0.00308595
0.003166
0.00314838
0.00307396
0.00297245
0.00285145
0.00272429
0.00259019
0.00245854
0.00232128
0.00219059
0.00202968
0.00186238
0.00170696
0.00157789
0.00148685
0.00142757
0.00139289
0.00137991
0.00138898
0.00169946
0.00439007
0.0126177
0.0288831
0.0587694
0.112258
0.201462
0.346328
0.589365
1.02898
1.88674
3.6862
7.64783
16.1589
32.014
51.9923
68.434
75.1931
74.0386
68.9704
62.505
56.0708
50.2172
45.0352
40.4317
36.4618
33.0522
30.0892
27.5426
25.2998
23.3322
21.5779
20.0081
18.5794
17.2931
16.12
15.0483
14.0681
13.1707
12.3496
11.6002
10.9123
10.2751
9.68081
9.1235
8.59811
8.10087
7.62635
7.17223
6.73863
6.32702
5.93989
5.5803
5.25063
4.95216
4.68601
4.4544
4.26055
4.10705
3.99919
3.91548
3.61892
6.79786
1.72856
3.59349
6.04825
7.17984
7.48483
7.28133
6.61723
5.50846
4.07863
2.65709
1.5265
0.787749
0.377788
0.174302
0.0795731
0.0366669
0.0172992
0.00849326
0.00444601
0.00256592
0.00168585
0.00127385
0.00108401
0.00099951
0.000963787
0.000949333
0.000942022
0.000936154
0.00093067
0.000925566
0.000920487
0.000914694
0.000907426
0.00089831
0.000887585
0.000876008
0.000864455
0.000853504
0.000843259
0.000833378
0.000823317
0.000812484
0.000800197
0.000786019
0.000769531
0.000750384
0.000728308
0.000703127
0.000703091
0.000728273
0.000750351
0.000769498
0.000785987
0.000800166
0.000812453
0.000823311
0.000833377
0.000843257
0.000853503
0.000864453
0.000876006
0.000887582
0.000898306
0.000907423
0.000914691
0.000920483
0.00092556
0.000930662
0.000936139
0.000941998
0.000949285
0.000963667
0.00099917
0.00108305
0.00127116
0.00167847
0.00254558
0.00438907
0.00833059
0.0168254
0.0352652
0.0754032
0.162164
0.344817
0.708034
1.36122
2.37119
3.67363
5.05033
6.22349
7.09697
7.70878
8.1773
8.65129
9.2173
9.75427
9.88678
9.40051
9.57132
9.6035
9.6616
9.7252
9.79279
9.86175
9.92887
9.99673
10.0646
10.1323
10.1989
10.264
10.3277
10.3901
10.4527
10.5168
10.5811
10.6444
10.7065
10.7649
10.8157
10.8585
10.8887
10.8954
10.8725
10.8063
10.6876
10.4999
10.2337
9.87502
9.41215
8.81968
8.08759
7.1984
6.12378
4.84472
3.38018
1.89575
0.719145
0.128973
0.0039186
0.0029255
0.00310182
0.003122
0.00296334
0.00283966
0.00270869
0.00258067
0.00244356
0.00231216
0.00217194
0.00203258
0.00185816
0.00169099
0.00154549
0.00142442
0.00133053
0.00126503
0.00121992
0.0011895
0.00117077
0.00116225
0.00116368
0.00120226
0.00161548
0.00362116
0.00878561
0.0185793
0.0369745
0.0710923
0.133604
0.239789
0.423207
0.756774
1.41348
2.77372
5.65961
11.9497
24.4943
42.3742
59.3313
68.3791
69.0315
65.0734
59.3225
53.4997
48.1222
43.2245
38.9504
35.2541
32.0314
29.2654
26.8332
24.7105
22.8269
21.1522
19.635
18.2756
17.0396
15.9152
14.8914
13.9557
13.1018
12.3252
11.6148
10.959
10.3499
9.7818
9.24933
8.7485
8.27379
7.82256
7.39468
6.99141
6.61495
6.26805
5.95285
5.67049
5.42216
5.21018
5.03779
4.90752
4.82614
4.7726
4.48353
7.31015
2.51074
3.65822
5.8468
7.04976
7.47449
7.3356
6.70046
5.5978
4.15649
2.71169
1.55754
0.80246
0.383796
0.176487
0.0803125
0.0369116
0.0173809
0.00852107
0.00445569
0.00256936
0.00168709
0.0012743
0.00108417
0.000999566
0.000963807
0.00094934
0.000942026
0.000936156
0.000930671
0.000925566
0.000920487
0.000914695
0.000907427
0.00089831
0.000887585
0.000876009
0.000864455
0.000853505
0.000843259
0.000833378
0.000823317
0.000812484
0.000800197
0.000786019
0.000769531
0.000750385
0.000728309
0.000703128
0.000703083
0.000728266
0.000750343
0.000769491
0.00078598
0.000800159
0.000812446
0.000823309
0.000833377
0.000843256
0.000853503
0.000864452
0.000876005
0.000887581
0.000898306
0.000907423
0.00091469
0.000920483
0.00092556
0.00093066
0.000936137
0.000941994
0.000949277
0.000963647
0.000999112
0.00108288
0.00127071
0.00167723
0.00254218
0.00437958
0.00830357
0.0167472
0.0350356
0.0747263
0.160206
0.339484
0.695052
1.33428
2.32458
3.60583
4.96887
6.14998
7.05542
7.71921
8.24867
8.76442
9.29993
9.72705
9.80041
9.52281
9.69226
9.73293
9.79553
9.86142
9.92951
9.99845
10.0665
10.1351
10.2034
10.2715
10.3385
10.4039
10.4674
10.5294
10.5909
10.6527
10.7135
10.7719
10.8273
10.8767
10.9148
10.941
10.9507
10.9313
10.8763
10.7707
10.605
10.3614
10.0305
9.59547
9.0383
8.33364
7.46682
6.41618
5.14705
3.65528
2.10413
0.836342
0.191403
0.0223315
0.00304164
0.0029769
0.00296701
0.00283231
0.00262676
0.00248147
0.00233842
0.00220958
0.00206406
0.0019214
0.00173472
0.00156479
0.00142647
0.00131794
0.00123369
0.00117136
0.00112805
0.00109719
0.00107513
0.00105982
0.00104999
0.00104495
0.00104446
0.00105296
0.00110952
0.00148804
0.00290225
0.0062383
0.0124553
0.0242496
0.0474125
0.0914992
0.174356
0.319076
0.582792
1.10115
2.1542
4.3438
9.04809
18.437
33.7026
50.1656
61.0911
63.7209
61.0495
56.2588
51.0498
46.0295
41.5256
37.568
34.085
31.0887
28.4498
26.1544
24.1243
22.3297
20.7113
19.2684
17.9605
16.7761
15.7034
14.7253
13.8355
13.03
12.2962
11.6219
10.9992
10.4223
9.88587
9.38548
8.91553
8.47298
8.0573
7.66944
7.31121
6.9849
6.69228
6.43421
6.21189
6.02793
5.88591
5.78874
5.74359
5.73156
5.4858
7.79225
3.52356
4.12187
6.19481
7.14417
7.54497
7.4415
6.8282
5.72644
4.26614
2.78803
1.60077
0.82285
0.392076
0.179479
0.0813168
0.0372414
0.0174903
0.00855813
0.00446853
0.00257391
0.00168873
0.00127489
0.00108438
0.000999639
0.000963832
0.00094935
0.000942031
0.000936159
0.000930673
0.000925567
0.000920488
0.000914695
0.000907428
0.000898311
0.000887586
0.000876009
0.000864456
0.000853505
0.000843259
0.000833379
0.000823317
0.000812484
0.000800198
0.00078602
0.000769531
0.000750385
0.000728309
0.000703128
0.000703075
0.000728258
0.000750335
0.000769483
0.000785973
0.000800152
0.000812439
0.000823308
0.000833377
0.000843256
0.000853503
0.000864452
0.000876005
0.000887581
0.000898305
0.000907422
0.00091469
0.000920482
0.000925558
0.000930658
0.000936133
0.000941988
0.000949266
0.00096362
0.000999037
0.00108267
0.00127012
0.00167561
0.00253774
0.00436719
0.0082684
0.0166456
0.0347389
0.0738569
0.157706
0.332708
0.678555
1.2999
2.26478
3.51808
4.86156
6.04897
6.98765
7.70185
8.2771
8.79438
9.25185
9.57011
9.58981
9.51818
9.68352
9.74825
9.82351
9.89798
9.9708
10.0425
10.1127
10.1823
10.2505
10.318
10.3839
10.4478
10.5094
10.5689
10.627
10.6841
10.7387
10.7892
10.8345
10.8708
10.8914
10.8954
10.878
10.825
10.729
10.5743
10.3506
10.0397
9.62808
9.09217
8.41309
7.55632
6.50293
5.22966
3.72531
2.14711
0.853786
0.198973
0.028177
0.00448848
0.00278954
0.00275688
0.00268567
0.00250735
0.00229902
0.00214589
0.00199492
0.00185484
0.00165977
0.00148331
0.00134667
0.00124556
0.00117102
0.00111549
0.0010755
0.00104731
0.00102654
0.00101113
0.000999824
0.000991796
0.000986474
0.000983513
0.00098276
0.000984264
0.000994528
0.0010541
0.00135811
0.0023448
0.00457716
0.00869163
0.0166716
0.0329413
0.0659284
0.13137
0.249282
0.462437
0.875728
1.70474
3.39805
6.84907
13.8382
26.2745
41.3063
53.2917
58.0017
56.9506
53.2479
48.5923
44.0701
39.9535
36.2532
33.0406
30.1923
27.716
25.5273
23.6012
21.87
20.334
18.9451
17.6932
16.5658
15.5403
14.6107
13.7735
13.0146
12.3208
11.6843
11.0994
10.5606
10.0631
9.60102
9.17093
8.77181
8.40418
8.0694
7.76932
7.50526
7.27771
7.08802
6.9393
6.83596
6.78107
6.78125
6.82232
6.6628
8.44142
5.21238
4.63714
7.18875
7.86814
7.88671
7.67399
7.03769
5.91766
4.42346
2.89638
1.66181
0.851481
0.403624
0.183617
0.0826926
0.0376887
0.0176375
0.0086077
0.00448564
0.00257995
0.0016909
0.00127568
0.00108466
0.000999736
0.000963866
0.000949363
0.000942038
0.000936163
0.000930675
0.000925569
0.000920489
0.000914696
0.000907428
0.000898312
0.000887587
0.00087601
0.000864456
0.000853505
0.000843259
0.000833379
0.000823317
0.000812484
0.000800198
0.00078602
0.000769531
0.000750385
0.000728309
0.000703128
0.000703066
0.000728249
0.000750327
0.000769475
0.000785965
0.000800144
0.000812432
0.000823306
0.000833376
0.000843255
0.000853502
0.000864451
0.000876004
0.00088758
0.000898304
0.000907421
0.000914689
0.000920481
0.000925557
0.000930656
0.000936129
0.000941981
0.000949253
0.000963586
0.00099894
0.0010824
0.00126935
0.0016735
0.00253193
0.004351
0.00822251
0.0165136
0.0343548
0.0727392
0.154517
0.324111
0.65762
1.25598
2.18758
3.40336
4.71816
5.9059
6.87269
7.62584
8.21974
8.69747
9.05652
9.26909
9.24305
9.34702
9.52185
9.62896
9.72954
9.82346
9.90955
9.99053
10.0675
10.1411
10.2111
10.2788
10.3438
10.4058
10.4645
10.5202
10.5732
10.6234
10.669
10.7083
10.7396
10.7581
10.7555
10.7302
10.6774
10.5816
10.4336
10.2181
9.92253
9.52137
9.00037
8.32682
7.47578
6.40384
5.08991
3.57634
2.02354
0.780398
0.173273
0.0238633
0.00427758
0.00265069
0.00254384
0.00248859
0.00239672
0.0021974
0.00199109
0.00181634
0.00162518
0.00143838
0.00129883
0.00120033
0.00113108
0.0010815
0.00104518
0.00101911
0.00100007
0.000985524
0.000974415
0.000966016
0.000959778
0.000955293
0.000952269
0.000950518
0.000949938
0.000950514
0.000953507
0.000963702
0.00101713
0.00124882
0.00194415
0.00348424
0.00634119
0.0119587
0.0240168
0.0496092
0.101623
0.199346
0.372987