/*--------------------------------*- C++ -*----------------------------------*\
| =========                 |                                                 |
| \\      /  F ield         | OpenFOAM: The Open Source CFD Toolbox           |
|  \\    /   O peration     | Version:  2112                                  |
|   \\  /    A nd           | Website:  www.openfoam.com                      |
|    \\/     M anipulation  |                                                 |
\*---------------------------------------------------------------------------*/
FoamFile
{
    version     2.0;
    format      ascii;
    arch        "LSB;label=32;scalar=64";
    class       volScalarField;
    location    "1402";
    object      p;
}
// * * * * * * * * * * * * * * * * * * * * * * * * * * * * * * * * * * * * * //

dimensions      [0 2 -2 0 0 0 0];

internalField   nonuniform List<scalar> 
14336
(
0.0289148
0.0470915
0.0958754
0.136641
0.184235
0.237706
0.301067
0.377195
0.469884
0.583301
0.72273
0.894508
1.1063
1.36759
1.68988
2.08729
2.57709
3.1803
3.92247
4.83501
5.9567
7.33458
9.02424
11.0924
13.6182
16.6942
20.4271
24.9314
30.3166
36.6878
44.1579
52.8265
62.7516
73.9515
86.4245
100.167
115.171
131.391
148.676
166.646
184.674
201.984
217.818
231.835
243.61
251.733
260.875
291.237
253.173
238.183
226.747
215.4
205.127
195.64
186.88
178.811
171.438
164.798
158.948
153.953
149.881
146.805
144.793
143.909
144.209
145.749
148.589
152.802
158.489
165.794
174.934
186.213
200.036
216.883
237.276
261.771
290.904
325.173
364.976
410.6
462.18
519.7
583.019
651.85
725.633
803.644
884.91
968.091
1051.28
1131.86
1206.59
1271.14
1318.54
1339.4
1324.59
1262.44
1137.12
933.794
639.206
246.287
-241.165
-806.092
-1419.36
-2045.64
-2652.04
-3213.51
-3715.02
-4151.65
-4525.19
-4840.31
-5105.76
-5313.94
-5552.64
-5732.94
-5977.86
-6264.65
-6557.88
-6854.17
-7145.34
-7408.44
-7613.99
-7732.35
-7740.34
-7626.28
-7394.68
-7065.13
-6667.18
-6231.51
-5783.48
-5342.41
-4921.19
-4526.25
-4160.56
-3824.63
-3517.41
-3236.8
-2980.43
-2745.82
-2530.4
-2331.88
-2148.19
-1977.45
-1818.1
-1668.83
-1528.6
-1396.64
-1272.36
-1155.41
-1045.51
-942.477
-846.142
-756.245
-672.499
-594.526
-521.842
-453.952
-390.351
-330.565
-274.184
-220.854
-170.304
-122.367
-76.9921
-34.226
5.81335
42.9933
77.2118
108.486
136.888
162.462
185.163
204.942
221.938
236.585
248.73
259.828
291.251
260.918
251.767
243.637
231.859
217.844
202.017
184.712
166.681
148.707
131.417
115.191
100.183
86.4363
73.9606
62.7586
52.8317
44.1617
36.6906
30.3188
24.9332
20.4288
16.6957
13.6197
11.0937
9.02541
7.33556
5.9575
4.83564
3.92297
3.1807
2.57739
2.0875
1.69002
1.36773
1.10648
0.894732
0.722953
0.583463
0.469941
0.377137
0.300919
0.237519
0.184074
0.136558
0.0958824
0.0471479
0.0289408
0.0288913
0.0470403
0.0958694
0.136718
0.184383
0.237877
0.301203
0.377251
0.469837
0.58316
0.722537
0.894319
1.10615
1.3675
1.6898
2.08718
2.57693
3.1801
3.92224
4.83473
5.95635
7.33415
9.02374
11.0918
13.6176
16.6936
20.4265
24.9307
30.3158
36.6869
44.1567
52.8249
62.7495
73.9489
86.4212
100.163
115.165
131.384
148.667
166.637
184.665
201.978
217.815
231.833
243.605
251.723
260.866
291.199
253.193
238.194
226.756
215.407
205.132
195.644
186.884
178.814
171.44
164.799
158.949
153.953
149.882
146.806
144.794
143.909
144.209
145.749
148.589
152.802
158.489
165.794
174.934
186.213
200.036
216.883
237.276
261.771
290.906
325.175
364.978
410.604
462.185
519.706
583.027
651.86
725.646
803.661
884.93
968.114
1051.3
1131.89
1206.62
1271.17
1318.56
1339.4
1324.56
1262.35
1136.95
933.495
638.74
245.619
-242.049
-807.171
-1420.56
-2046.86
-2653.13
-3214.36
-3715.55
-4151.8
-4524.96
-4839.7
-5104.77
-5312.57
-5550.19
-5730.91
-5975.96
-6262.89
-6556.24
-6852.65
-7143.99
-7407.33
-7613.17
-7731.87
-7740.19
-7626.42
-7395.04
-7065.62
-6667.72
-6232.03
-5783.94
-5342.81
-4921.52
-4526.52
-4160.77
-3824.79
-3517.54
-3236.9
-2980.5
-2745.88
-2530.45
-2331.92
-2148.22
-1977.48
-1818.12
-1668.84
-1528.61
-1396.65
-1272.37
-1155.42
-1045.51
-942.479
-846.143
-756.245
-672.499
-594.525
-521.841
-453.95
-390.348
-330.561
-274.18
-220.849
-170.299
-122.361
-76.9861
-34.2194
5.82059
43.0011
77.2202
108.495
136.897
162.472
185.173
204.951
221.948
236.594
248.74
259.826
291.245
260.98
251.793
243.659
231.879
217.865
202.039
184.734
166.702
148.724
131.431
115.202
100.191
86.4423
73.9651
62.7619
52.8342
44.1635
36.6919
30.3197
24.934
20.4294
16.6964
13.6203
11.0943
9.02592
7.33598
5.95785
4.83592
3.9232
3.1809
2.57756
2.08761
1.6901
1.36782
1.10662
0.894921
0.723146
0.583604
0.469988
0.377081
0.300783
0.237348
0.183927
0.136481
0.0958885
0.0471992
0.0289644
0.0288732
0.0470016
0.0958658
0.136777
0.184497
0.238008
0.301308
0.377295
0.469805
0.583059
0.722401
0.894193
1.10607
1.36747
1.6898
2.08718
2.57694
3.18014
3.92232
4.83485
5.95653
7.33438
9.02402
11.0921
13.618
16.694
20.427
24.9313
30.3165
36.6878
44.158
52.8267
62.7519
73.9519
86.4251
100.168
115.172
131.392
148.676
166.647
184.676
201.988
217.821
231.837
243.607
251.722
260.833
291.155
253.195
238.198
226.758
215.409
205.134
195.646
186.885
178.815
171.441
164.8
158.949
153.954
149.882
146.806
144.794
143.909
144.209
145.749
148.589
152.802
158.488
165.794
174.934
186.213
200.036
216.883
237.277
261.772
290.906
325.175
364.979
410.605
462.187
519.709
583.031
651.864
725.651
803.667
884.937
968.122
1051.31
1131.9
1206.63
1271.17
1318.57
1339.4
1324.55
1262.32
1136.9
933.411
638.624
245.487
-242.142
-807.115
-1420.19
-2045.97
-2651.49
-3211.81
-3711.94
-4146.97
-4518.67
-4831.64
-5094.51
-5300.08
-5536.98
-5720.94
-5967.72
-6255.97
-6550.45
-6847.8
-7139.97
-7404.07
-7610.62
-7729.96
-7738.85
-7625.56
-7394.55
-7065.39
-6667.66
-6232.07
-5784.04
-5342.92
-4921.63
-4526.62
-4160.85
-3824.86
-3517.59
-3236.95
-2980.54
-2745.9
-2530.47
-2331.94
-2148.24
-1977.49
-1818.13
-1668.85
-1528.62
-1396.65
-1272.37
-1155.42
-1045.51
-942.479
-846.144
-756.245
-672.499
-594.525
-521.84
-453.949
-390.347
-330.56
-274.179
-220.848
-170.297
-122.359
-76.984
-34.2171
5.8231
43.0038
77.223
108.498
136.9
162.475
185.176
204.954
221.951
236.597
248.743
259.803
291.228
261.016
251.795
243.659
231.878
217.861
202.032
184.725
166.692
148.715
131.424
115.196
100.186
86.4383
73.9618
62.7592
52.8321
44.1618
36.6906
30.3187
24.9332
20.4288
16.6958
13.6198
11.0939
9.02558
7.33572
5.95765
4.83577
3.92311
3.18085
2.57754
2.0876
1.6901
1.36785
1.1067
0.895046
0.723282
0.583704
0.47002
0.377036
0.300678
0.237216
0.183813
0.136421
0.095892
0.0472379
0.0289824
0.0288599
0.0469736
0.0958639
0.136822
0.184581
0.238105
0.301384
0.377327
0.46978
0.582985
0.722303
0.894104
1.10602
1.36745
1.68981
2.0872
2.57697
3.1802
3.92242
4.835
5.95672
7.33462
9.02432
11.0925
13.6184
16.6945
20.4275
24.932
30.3173
36.6889
44.1594
52.8285
62.7543
73.955
86.429
100.173
115.178
131.399
148.684
166.655
184.684
201.992
217.822
231.835
243.602
251.709
260.774
291.097
253.185
238.199
226.759
215.41
205.135
195.646
186.885
178.815
171.441
164.8
158.949
153.954
149.882
146.806
144.794
143.909
144.209
145.749
148.589
152.802
158.488
165.794
174.934
186.213
200.037
216.884
237.277
261.772
290.906
325.176
364.98
410.606
462.188
519.71
583.032
651.866
725.653
803.668
884.938
968.124
1051.31
1131.9
1206.63
1271.17
1318.56
1339.4
1324.54
1262.32
1136.9
933.435
638.728
245.793
-241.411
-805.6
-1417.39
-2041.33
-2644.4
-3201.68
-3698.21
-4128.95
-4495.48
-4802.26
-5057.92
-5258.58
-5490.06
-5683.56
-5935.53
-6228.58
-6527.93
-6829.5
-7125.26
-7392.47
-7601.71
-7723.35
-7734.13
-7622.31
-7392.37
-7063.97
-6666.76
-6231.51
-5783.7
-5342.72
-4921.52
-4526.56
-4160.83
-3824.85
-3517.59
-3236.95
-2980.54
-2745.91
-2530.48
-2331.94
-2148.24
-1977.49
-1818.13
-1668.85
-1528.62
-1396.65
-1272.37
-1155.42
-1045.51
-942.48
-846.144
-756.245
-672.498
-594.524
-521.84
-453.949
-390.347
-330.56
-274.178
-220.847
-170.297
-122.359
-76.9834
-34.2165
5.82367
43.0043
77.2235
108.498
136.901
162.475
185.177
204.955
221.951
236.597
248.743
259.757
291.214
261.061
251.804
243.663
231.879
217.858
202.025
184.715
166.682
148.706
131.415
115.189
100.18
86.4335
73.9579
62.7561
52.8296
44.1599
36.6891
30.3176
24.9323
20.428
16.6952
13.6193
11.0935
9.02522
7.33543
5.95743
4.83561
3.923
3.18079
2.5775
2.08758
1.69009
1.36786
1.10675
0.895135
0.723379
0.583778
0.470044
0.377004
0.300601
0.23712
0.183729
0.136376
0.0958939
0.0472659
0.0289958
0.0288499
0.0469525
0.0958623
0.136855
0.184643
0.238177
0.301442
0.377351
0.469762
0.58293
0.722229
0.894036
1.10598
1.36744
1.68981
2.08721
2.57698
3.18023
3.92248
4.83509
5.95685
7.33479
9.02454
11.0928
13.6187
16.6948
20.428
24.9325
30.3181
36.6898
44.1606
52.8302
62.7564
73.9576
86.4322
100.176
115.182
131.404
148.689
166.658
184.686
201.992
217.819
231.827
243.589
251.685
260.698
291.031
253.16
238.202
226.761
215.411
205.136
195.647
186.886
178.816
171.442
164.801
158.95
153.954
149.883
146.806
144.794
143.909
144.209
145.749
148.589
152.802
158.489
165.794
174.934
186.213
200.037
216.884
237.277
261.772
290.907
325.177
364.981
410.607
462.189
519.712
583.034
651.869
725.656
803.672
884.942
968.127
1051.32
1131.9
1206.63
1271.17
1318.56
1339.39
1324.54
1262.32
1136.93
933.568
639.13
246.792
-239.254
-801.427
-1410.07
-2029.68
-2627.37
-3178.07
-3666.87
-4088.7
-4445.09
-4740.53
-4983.99
-5179.21
-5398.1
-5608.28
-5867.92
-6167.52
-6475.32
-6785.2
-7088.77
-7363.35
-7579.35
-7706.89
-7722.52
-7614.44
-7387.18
-7060.62
-6664.62
-6230.16
-5782.85
-5342.18
-4921.18
-4526.35
-4160.69
-3824.77
-3517.54
-3236.92
-2980.52
-2745.9
-2530.47
-2331.94
-2148.24
-1977.49
-1818.13
-1668.85
-1528.62
-1396.65
-1272.37
-1155.42
-1045.51
-942.479
-846.143
-756.244
-672.498
-594.524
-521.839
-453.948
-390.346
-330.559
-274.177
-220.846
-170.296
-122.358
-76.9824
-34.2154
5.82477
43.0055
77.2247
108.499
136.902
162.476
185.178
204.956
221.952
236.598
248.744
259.673
291.196
261.129
251.823
243.676
231.886
217.861
202.024
184.711
166.676
148.699
131.409
115.183
100.175
86.4296
73.9546
62.7534
52.8274
44.1582
36.6878
30.3165
24.9315
20.4274
16.6947
13.6188
11.0931
9.02495
7.33522
5.95727
4.83549
3.92292
3.18075
2.57748
2.08757
1.69008
1.36787
1.10679
0.895202
0.723453
0.583833
0.470062
0.37698
0.300544
0.237048
0.183666
0.136343
0.0958954
0.047287
0.0290057
0.0288423
0.0469363
0.0958608
0.13688
0.184691
0.238232
0.301486
0.377369
0.469749
0.582888
0.722173
0.893984
1.10594
1.36743
1.68982
2.08722
2.577
3.18026
3.92253
4.83517
5.95695
7.33494
9.02473
11.093
13.619
16.6952
20.4285
24.9332
30.3189
36.6909
44.162
52.832
62.7586
73.9603
86.4354
100.18
115.186
131.408
148.692
166.66
184.686
201.989
217.811
231.814
243.568
251.648
260.611
290.939
253.117
238.209
226.763
215.413
205.137
195.648
186.887
178.817
171.442
164.801
158.951
153.955
149.883
146.807
144.794
143.91
144.209
145.749
148.589
152.802
158.489
165.795
174.934
186.214
200.037
216.885
237.278
261.774
290.908
325.178
364.983
410.609
462.192
519.715
583.038
651.873
725.66
803.677
884.947
968.133
1051.32
1131.9
1206.63
1271.18
1318.56
1339.39
1324.54
1262.33
1137.03
933.93
640.104
249.036
-234.673
-793.016
-1396.05
-2008.22
-2596.74
-3136.49
-3612.8
-4020.68
-4361.75
-4640.56
-4865.98
-5052.08
-5259.72
-5489.01
-5758.77
-6064.62
-6382.34
-6703.2
-7018.23
-7304.9
-7533.11
-7672.22
-7697.99
-7597.99
-7376.6
-7053.98
-6660.49
-6227.58
-5781.24
-5341.17
-4920.54
-4525.93
-4160.42
-3824.59
-3517.42
-3236.84
-2980.47
-2745.86
-2530.44
-2331.92
-2148.22
-1977.48
-1818.12
-1668.85
-1528.62
-1396.65
-1272.37
-1155.42
-1045.51
-942.478
-846.142
-756.244
-672.497
-594.523
-521.838
-453.948
-390.345
-330.558
-274.176
-220.845
-170.295
-122.356
-76.9809
-34.2138
5.82645
43.0072
77.2264
108.501
136.904
162.478
185.179
204.957
221.954
236.6
248.748
259.521
291.146
261.224
251.852
243.696
231.899
217.867
202.025
184.709
166.672
148.695
131.404
115.178
100.171
86.4258
73.9513
62.7507
52.8252
44.1564
36.6864
30.3154
24.9306
20.4267
16.6941
13.6184
11.0928
9.0247
7.33504
5.95714
4.8354
3.92286
3.18071
2.57746
2.08755
1.69007
1.36788
1.10683
0.895253
0.723509
0.583875
0.470075
0.376961
0.3005
0.236992
0.183618
0.136318
0.0958969
0.0473031
0.0290133
0.0288365
0.0469238
0.0958596
0.1369
0.184728
0.238275
0.30152
0.377384
0.469739
0.582857
0.72213
0.893945
1.10592
1.36743
1.68982
2.08723
2.57701
3.18028
3.92258
4.83525
5.95706
7.33509
9.02493
11.0933
13.6193
16.6957
20.4291
24.9339
30.3199
36.6923
44.1638
52.8342
62.7613
73.9636
86.4393
100.185
115.191
131.412
148.695
166.66
184.684
201.983
217.8
231.795
243.539
251.598
260.519
290.791
253.062
238.224
226.767
215.416
205.14
195.651
186.889
178.819
171.444
164.803
158.952
153.956
149.884
146.808
144.795
143.91
144.21
145.75
148.59
152.803
158.49
165.796
174.935
186.215
200.039
216.886
237.28
261.776
290.911
325.181
364.986
410.613
462.196
519.72
583.044
651.879
725.668
803.685
884.957
968.143
1051.33
1131.91
1206.64
1271.18
1318.56
1339.38
1324.54
1262.38
1137.27
934.654
641.919
252.982
-227.013
-779.529
-1374.25
-1975.47
-2550.41
-3074.15
-3532.3
-3919.92
-4238.48
-4492.04
-4691.78
-4867.66
-5075.13
-5319.65
-5600.63
-5913.81
-6242.61
-6576.27
-6904.83
-7206.56
-7451.45
-7608.16
-7650.9
-7565.71
-7355.86
-7041.26
-6652.84
-6222.96
-5778.41
-5339.41
-4919.43
-4525.23
-4159.96
-3824.29
-3517.21
-3236.69
-2980.37
-2745.79
-2530.39
-2331.88
-2148.2
-1977.46
-1818.11
-1668.83
-1528.61
-1396.64
-1272.37
-1155.41
-1045.51
-942.475
-846.14
-756.242
-672.495
-594.522
-521.837
-453.946
-390.344
-330.557
-274.175
-220.844
-170.293
-122.355
-76.9793
-34.2122
5.82817
43.009
77.2284
108.503
136.906
162.48
185.182
204.96
221.956
236.602
248.758
259.275
291.027
261.353
251.889
243.726
231.918
217.878
202.03
184.709
166.669
148.69
131.399
115.173
100.166
86.4214
73.9476
62.7475
52.8225
44.1542
36.6847
30.3141
24.9296
20.4259
16.6935
13.618
11.0924
9.02445
7.33485
5.957
4.8353
3.92279
3.18067
2.57744
2.08754
1.69006
1.36789
1.10685
0.895291
0.723551
0.583906
0.470085
0.376947
0.300465
0.23695
0.183582
0.136299
0.0958981
0.0473156
0.0290191
0.0288321
0.0469143
0.0958587
0.136914
0.184756
0.238307
0.301546
0.377395
0.469732
0.582833
0.722098
0.893916
1.1059
1.36742
1.68983
2.08724
2.57703
3.18032
3.92264
4.83533
5.95719
7.33526
9.02516
11.0936
13.6198
16.6962
20.4298
24.935
30.3213
36.694
44.166
52.8369
62.7647
73.9677
86.444
100.19
115.197
131.418
148.698
166.66
184.681
201.974
217.783
231.769
243.498
251.531
260.434
290.544
253.006
238.251
226.773
215.422
205.145
195.655
186.893
178.822
171.447
164.805
158.954
153.958
149.886
146.809
144.797
143.912
144.212
145.752
148.592
152.805
158.492
165.797
174.937
186.217
200.041
216.889
237.283
261.78
290.915
325.186
364.992
410.62
462.204
519.729
583.054
651.891
725.681
803.7
884.974
968.163
1051.35
1131.94
1206.67
1271.2
1318.57
1339.38
1324.54
1262.48
1137.67
935.832
644.743
258.931
-215.696
-759.809
-1342.48
-1927.76
-2482.86
-2983.22
-3414.7
-3772.33
-4056.84
-4273.49
-4446.63
-4624.48
-4840.42
-5094.64
-5383.76
-5705.73
-6047.87
-6397.17
-6742.11
-7061.85
-7326.89
-7505.57
-7571.19
-7508.06
-7317.24
-7017.16
-6638.54
-6214.62
-5773.47
-5336.41
-4917.56
-4524.04
-4159.2
-3823.78
-3516.87
-3236.46
-2980.21
-2745.67
-2530.3
-2331.82
-2148.15
-1977.42
-1818.08
-1668.81
-1528.59
-1396.63
-1272.36
-1155.4
-1045.5
-942.47
-846.136
-756.238
-672.492
-594.519
-521.835
-453.944
-390.342
-330.555
-274.174
-220.842
-170.292
-122.353
-76.9776
-34.2103
5.83016
43.0112
77.2307
108.506
136.909
162.484
185.185
204.964
221.96
236.607
248.78
258.96
290.794
261.524
251.934
243.767
231.944
217.893
202.037
184.709
166.666
148.684
131.393
115.167
100.16
86.4161
73.943
62.7436
52.8193
44.1516
36.6826
30.3125
24.9283
20.425
16.6928
13.6175
11.0921
9.02416
7.33464
5.95685
4.8352
3.92272
3.18063
2.57742
2.08752
1.69005
1.36789
1.10686
0.895319
0.723582
0.583929
0.470092
0.376935
0.300439
0.236917
0.183554
0.136284
0.095899
0.0473251
0.0290235
0.0288287
0.0469069
0.0958581
0.136926
0.184778
0.238332
0.301566
0.377404
0.469727
0.582815
0.722074
0.893895
1.10589
1.36742
1.68984
2.08726
2.57705
3.18036
3.92271
4.83543
5.95733
7.33546
9.02544
11.094
13.6203
16.697
20.4308
24.9363
30.323
36.6962
44.1688
52.8405
62.7691
73.9729
86.4501
100.197
115.204
131.424
148.701
166.66
184.675
201.962
217.761
231.733
243.443
251.442
260.373
290.124
252.956
238.293
226.783
215.432
205.153
195.662
186.899
178.827
171.452
164.81
158.958
153.962
149.89
146.812
144.8
143.915
144.214
145.754
148.594
152.808
158.495
165.801
174.941
186.221
200.046
216.894
237.289
261.786
290.923
325.195
365.002
410.632
462.218
519.745
583.072
651.912
725.705
803.728
885.006
968.2
1051.4
1131.98
1206.71
1271.23
1318.58
1339.36
1324.55
1262.63
1138.28
937.556
648.831
267.511
-199.377
-731.358
-1296.7
-1859.14
-2386.07
-2853.41
-3247.36
-3562.14
-3798.32
-3974.53
-4138.06
-4328.1
-4554.64
-4814.65
-5106.87
-5433.46
-5787.6
-6154.7
-6519.82
-6862.18
-7152.47
-7358.45
-7452.37
-7417.23
-7252.39
-6974.31
-6612.2
-6199.25
-5764.68
-5331.29
-4914.46
-4522.09
-4157.94
-3822.96
-3516.32
-3236.09
-2979.94
-2745.48
-2530.17
-2331.72
-2148.07
-1977.36
-1818.04
-1668.78
-1528.56
-1396.61
-1272.34
-1155.39
-1045.49
-942.461
-846.129
-756.232
-672.488
-594.515
-521.831
-453.941
-390.339
-330.552
-274.171
-220.84
-170.289
-122.35
-76.9747
-34.2073
5.8334
43.0147
77.2346
108.51
136.914
162.489
185.192
204.971
221.969
236.617
248.82
258.659
290.387
261.746
251.985
243.821
231.981
217.914
202.047
184.711
166.662
148.678
131.385
115.159
100.153
86.4095
73.9372
62.7387
52.8152
44.1484
36.68
30.3105
24.9268
20.4238
16.692
13.6168
11.0916
9.02382
7.3344
5.95668
4.83508
3.92265
3.18058
2.57739
2.0875
1.69004
1.36788
1.10687
0.895339
0.723605
0.583947
0.470097
0.376926
0.300419
0.236892
0.183532
0.136273
0.0958996
0.0473324
0.0290269
0.028826
0.0469013
0.0958576
0.136934
0.184794
0.238352
0.301582
0.377412
0.469723
0.582802
0.722057
0.893881
1.10589
1.36743
1.68985
2.08728
2.57709
3.18041
3.92279
4.83555
5.9575
7.33571
9.0258
11.0945
13.621
16.6979
20.4321
24.938
30.3253
36.6992
44.1726
52.8453
62.7749
73.9798
86.4581
100.205
115.213
131.432
148.706
166.659
184.668
201.945
217.73
231.684
243.369
251.327
260.362
289.399
252.92
238.354
226.799
215.447
205.166
195.673
186.908
178.836
171.459
164.817
158.964
153.968
149.895
146.818
144.805
143.919
144.219
145.759
148.599
152.812
158.499
165.806
174.946
186.227
200.053
216.902
237.298
261.797
290.935
325.209
365.019
410.651
462.24
519.771
583.103
651.948
725.747
803.777
885.064
968.268
1051.47
1132.07
1206.79
1271.28
1318.58
1339.33
1324.55
1262.84
1139.14
940.007
654.671
279.781
-176.083
-690.939
-1232.05
-1762.9
-2251.28
-2673.71
-3015.41
-3269.56
-3451.17
-3607.47
-3780.82
-3984.96
-4219.64
-4483.17
-4775.57
-5100.89
-5458.45
-5839.16
-6225.92
-6595.15
-6916.88
-7157.65
-7287.72
-7287.88
-7155.65
-6906.13
-6567.35
-6171.73
-5748.68
-5322.19
-4909.2
-4518.91
-4155.93
-3821.65
-3515.45
-3235.49
-2979.53
-2745.19
-2529.96
-2331.56
-2147.96
-1977.28
-1817.97
-1668.73
-1528.52
-1396.57
-1272.31
-1155.37
-1045.47
-942.448
-846.118
-756.223
-672.48
-594.508
-521.825
-453.936
-390.334
-330.548
-274.166
-220.835
-170.284
-122.346
-76.9698
-34.2021
5.83911
43.021
77.2416
108.518
136.923
162.5
185.204
204.985
221.985
236.633
248.877
258.458
289.717
262.021
252.039
243.889
232.032
217.944
202.061
184.714
166.658
148.67
131.376
115.149
100.143
86.401
73.9298
62.7324
52.8101
44.1442
36.6767
30.3079
24.9249
20.4224
16.6909
13.616
11.091
9.02341
7.33411
5.95648
4.83494
3.92255
3.18052
2.57735
2.08748
1.69002
1.36788
1.10688
0.895353
0.723622
0.583959
0.4701
0.376919
0.300403
0.236873
0.183515
0.136264
0.0959001
0.047338
0.0290295
0.028824
0.046897
0.0958573
0.136941
0.184807
0.238367
0.301595
0.377418
0.469721
0.582793
0.722045
0.893872
1.10588
1.36744
1.68987
2.08731
2.57713
3.18048
3.92289
4.8357
5.95772
7.33603
9.02625
11.0951
13.6219
16.6992
20.4338
24.9403
30.3283
36.7031
44.1777
52.8515
62.7826
73.989
86.4686
100.217
115.225
131.443
148.713
166.658
184.659
201.922
217.688
231.618
243.271
251.177
260.436
288.159
252.902
238.435
226.819
215.469
205.186
195.69
186.924
178.849
171.472
164.828
158.974
153.977
149.903
146.825
144.812
143.927
144.226
145.766
148.606
152.819
158.507
165.814
174.955
186.237
200.064
216.915
237.313
261.814
290.955
325.232
365.045
410.682
462.276
519.813
583.152
652.006
725.816
803.859
885.162
968.383
1051.6
1132.19
1206.89
1271.34
1318.58
1339.28
1324.53
1263.11
1140.33
943.467
662.939
297.113
-143.37
-634.62
-1142.78
-1631.39
-2068.75
-2429.98
-2698.49
-2885.16
-3038.82
-3202.36
-3390.9
-3605.62
-3845.09
-4109.75
-4400.67
-4720.28
-5071.92
-5453.36
-5854.03
-6250.08
-6607.43
-6890.34
-7066.06
-7111.81
-7021.56
-6808.19
-6499.04
-6126.71
-5720.85
-5305.9
-4899.89
-4513.53
-4152.68
-3819.58
-3514.08
-3234.56
-2978.89
-2744.74
-2529.63
-2331.33
-2147.78
-1977.14
-1817.87
-1668.65
-1528.46
-1396.52
-1272.27
-1155.34
-1045.45
-942.427
-846.1
-756.209
-672.468
-594.498
-521.816
-453.927
-390.327
-330.54
-274.159
-220.828
-170.277
-122.338
-76.9617
-34.1933
5.84861
43.0314
77.2533
108.531
136.938
162.518
185.224
205.009
222.012
236.658
248.955
258.453
288.681
262.336
252.082
243.966
232.099
217.984
202.081
184.719
166.652
148.66
131.363
115.137
100.131
86.39
73.9201
62.7242
52.8033
44.1388
36.6725
30.3046
24.9223
20.4205
16.6895
13.615
11.0903
9.0229
7.33376
5.95623
4.83477
3.92244
3.18045
2.5773
2.08745
1.69
1.36787
1.10688
0.895361
0.723633
0.583968
0.470102
0.376912
0.30039
0.236857
0.183502
0.136257
0.0959004
0.0473423
0.0290315
0.0288224
0.0468937
0.0958571
0.136947
0.184818
0.238379
0.301605
0.377423
0.46972
0.582787
0.722038
0.893868
1.10589
1.36745
1.6899
2.08735
2.57719
3.18056
3.92302
4.8359
5.95801
7.33644
9.02685
11.096
13.6231
16.7008
20.436
24.9433
30.3323
36.7084
44.1843
52.8599
62.7928
74.0011
86.4827
100.233
115.241
131.458
148.723
166.659
184.648
201.892
217.632
231.529
243.139
250.981
260.629
286.111
252.902
238.535
226.845
215.501
205.214
195.715
186.947
178.87
171.49
164.844
158.99
153.991
149.916
146.838
144.824
143.937
144.236
145.776
148.616
152.83
158.518
165.826
174.968
186.252
200.081
216.934
237.335
261.839
290.985
325.267
365.086
410.73
462.333
519.88
583.231
652.099
725.927
803.992
885.321
968.565
1051.79
1132.37
1207.03
1271.41
1318.55
1339.17
1324.46
1263.44
1141.95
948.294
674.502
321.243
-98.2186
-557.804
-1022.8
-1456.89
-1825.95
-2102.42
-2292.34
-2445.63
-2604.1
-2782.41
-2982.41
-3203.11
-3444.61
-3708.1
-3994.88
-4306.56
-4645.86
-5015.84
-5413.7
-5824.55
-6215.81
-6544.77
-6774.32
-6876.73
-6840.59
-6674.35
-6403.32
-6060.48
-5677.01
-5278.42
-4883.51
-4504.03
-4147.14
-3816.22
-3511.93
-3233.13
-2977.9
-2744.04
-2529.13
-2330.96
-2147.51
-1976.94
-1817.71
-1668.52
-1528.36
-1396.45
-1272.21
-1155.29
-1045.41
-942.396
-846.075
-756.187
-672.449
-594.482
-521.802
-453.915
-390.315
-330.529
-274.148
-220.817
-170.266
-122.326
-76.9489
-34.1796
5.86359
43.048
77.2718
108.552
136.962
162.545
185.256
205.044
222.052
236.694
249.059
258.704
287.184
262.663
252.084
244.039
232.18
218.037
202.107
184.725
166.645
148.646
131.347
115.12
100.115
86.3754
73.9075
62.7136
52.7946
44.1317
36.6669
30.3003
24.9191
20.4181
16.6877
13.6137
11.0894
9.02226
7.3333
5.95592
4.83456
3.92229
3.18035
2.57724
2.0874
1.68998
1.36785
1.10687
0.895364
0.72364
0.583973
0.470103
0.376907
0.30038
0.236845
0.183492
0.136252
0.0959006
0.0473456
0.0290331
0.0288212
0.0468911
0.095857
0.136951
0.184826
0.238389
0.301613
0.377428
0.469721
0.582785
0.722035
0.893868
1.1059
1.36747
1.68993
2.0874
2.57726
3.18068
3.92319
4.83615
5.95838
7.33699
9.02763
11.0971
13.6246
16.703
20.439
24.9473
30.3377
36.7153
44.1932
52.871
62.8064
74.0173
86.5014
100.254
115.263
131.478
148.737
166.661
184.633
201.852
217.556
231.409
242.958
250.732
260.941
282.954
252.902
238.648
226.873
215.541
205.253
195.752
186.98
178.9
171.518
164.87
159.013
154.012
149.936
146.856
144.841
143.954
144.252
145.792
148.632
152.846
158.535
165.844
174.988
186.274
200.106
216.963
237.368
261.878
291.03
325.32
365.148
410.803
462.419
519.982
583.352
652.245
726.103
804.204
885.565
968.829
1052.06
1132.61
1207.2
1271.47
1318.47
1338.95
1324.29
1263.81
1144.13
954.933
690.445
354.282
-37.2435
-456.034
-866.442
-1228.18
-1503.58
-1693.59
-1847.2
-2003.2
-2174.88
-2364.12
-2570.3
-2793.47
-3034.47
-3294.31
-3574.14
-3875.37
-4199.87
-4550.43
-4930.17
-5335.06
-5743.65
-6115.29
-6402.13
-6570
-6600.16
-6494.38
-6273.42
-5969.11
-5614.2
-5236.51
-4856.69
-4487.67
-4137.47
-3810.5
-3508.44
-3230.88
-2976.39
-2742.99
-2528.38
-2330.41
-2147.1
-1976.63
-1817.47
-1668.34
-1528.22
-1396.34
-1272.13
-1155.22
-1045.35
-942.349
-846.036
-756.155
-672.422
-594.458
-521.781
-453.896
-390.297
-330.512
-274.131
-220.8
-170.248
-122.308
-76.9296
-34.1587
5.88638
43.0731
77.2997
108.584
136.998
162.586
185.302
205.096
222.109
236.743
249.189
259.096
285.164
262.919
252.012
244.073
232.265
218.102
202.141
184.733
166.635
148.627
131.325
115.097
100.094
86.3562
73.8909
62.6996
52.7831
44.1225
36.6596
30.2947
24.9148
20.4149
16.6854
13.6121
11.0882
9.02142
7.33272
5.95552
4.83428
3.92211
3.18023
2.57716
2.08735
1.68994
1.36783
1.10686
0.895362
0.723642
0.583976
0.470102
0.376902
0.300372
0.236836
0.183483
0.136247
0.0959006
0.0473481
0.0290343
0.0288203
0.0468891
0.095857
0.136955
0.184833
0.238397
0.30162
0.377432
0.469723
0.582785
0.722036
0.893874
1.10591
1.3675
1.68997
2.08746
2.57736
3.18083
3.92342
4.83649
5.95887
7.3377
9.02865
11.0985
13.6267
16.7059
20.443
24.9527
30.3448
36.7246
44.205
52.8857
62.8244
74.0388
86.5264
100.281
115.292
131.506
148.757
166.666
184.616
201.799
217.454
231.248
242.701
250.433
261.273
278.517
252.852
238.751
226.896
215.589
205.304
195.803
187.028
178.945
171.559
164.907
159.047
154.044
149.965
146.883
144.867
143.978
144.276
145.815
148.655
152.87
158.56
165.871
175.018
186.307
200.143
217.006
237.418
261.936
291.098
325.4
365.242
410.914
462.551
520.139
583.541
652.472
726.375
804.52
885.913
969.188
1052.4
1132.9
1207.41
1271.5
1318.26
1338.53
1323.9
1264.15
1146.96
963.911
712.053
398.469
42.4825
-325.369
-663.386
-927.095
-1112.93
-1265.97
-1420.17
-1586.88
-1767.73
-1962.26
-2170.53
-2393.17
-2630.89
-2884.48
-3154.94
-3443.26
-3751.11
-4080.31
-4433.4
-4813.22
-5214.16
-5607.53
-5946.56
-6182.64
-6288.32
-6255.92
-6098.9
-5845.4
-5528.24
-5177.57
-4816.96
-4461.72
-4121.19
-3800.62
-3502.48
-3227.2
-2974
-2741.37
-2527.24
-2329.58
-2146.49
-1976.17
-1817.13
-1668.07
-1528.01
-1396.17
-1271.99
-1155.11
-1045.27
-942.279
-845.979
-756.107
-672.381
-594.423
-521.75
-453.867
-390.27
-330.487
-274.106
-220.775
-170.222
-122.281
-76.9008
-34.1277
5.92003
43.1099
77.3404
108.629
137.048
162.642
185.366
205.166
222.184
236.801
249.33
259.462
282.571
262.963
251.86
244.016
232.329
218.172
202.181
184.742
166.621
148.602
131.296
115.067
100.065
86.3307
73.8688
62.681
52.7679
44.1103
36.65
30.2873
24.9093
20.4108
16.6824
13.6099
11.0867
9.02034
7.33197
5.955
4.83393
3.92187
3.18007
2.57705
2.08728
1.68989
1.3678
1.10685
0.895355
0.723641
0.583975
0.4701
0.376897
0.300365
0.236827
0.183477
0.136244
0.0959006
0.0473501
0.0290352
0.0288195
0.0468876
0.0958571
0.136958
0.184838
0.238404
0.301627
0.377437
0.469726
0.582788
0.722042
0.893885
1.10593
1.36754
1.69003
2.08755
2.57749
3.18103
3.92371
4.83693
5.95952
7.33864
9.03001
11.1005
13.6295
16.7097
20.4482
24.9598
30.3542
36.7368
44.2207
52.9054
62.8484
74.0676
86.5597
100.319
115.332
131.543
148.785
166.675
184.593
201.728
217.315
231.024
242.326
250.106
261.348
272.859
252.633
238.79
226.888
215.636
205.366
195.87
187.095
179.008
171.617
164.961
159.097
154.09
150.008
146.923
144.905
144.015
144.311
145.85
148.69
152.906
158.597
165.911
175.062
186.356
200.199
217.07
237.492
262.022
291.199
325.519
365.383
411.081
462.75
520.379
583.829
652.816
726.774
804.961
886.381
969.661
1052.84
1133.27
1207.61
1271.44
1317.83
1337.74
1323.08
1264.28
1150.49
975.753
740.488
455.364
143.573
-156.131
-397.586
-574.241
-724.364
-875.691
-1037.31
-1210.45
-1394.7
-1590.11
-1797.13
-2016.21
-2247.87
-2492.76
-2751.67
-3025.46
-3315.21
-3622.28
-3948.1
-4294.8
-4664.61
-5050.36
-5417.05
-5714.36
-5897.42
-5947.74
-5867.91
-5679.09
-5411.79
-5097.25
-4761.85
-4424.21
-4096.16
-3784.45
-3492.34
-3220.92
-2970.06
-2738.8
-2525.49
-2328.34
-2145.58
-1975.49
-1816.61
-1667.67
-1527.7
-1395.93
-1271.8
-1154.96
-1045.14
-942.178
-845.895
-756.037
-672.322
-594.372
-521.704
-453.826
-390.232
-330.449
-274.07
-220.738
-170.185
-122.241
-76.8591
-34.0831
5.96828
43.1623
77.3975
108.692
137.117
162.718
185.448
205.254
222.272
236.858
249.438
259.71
279.18
262.759
251.61
243.828
232.328
218.225
202.22
184.75
166.601
148.568
131.256
115.027
100.027
86.2968
73.8395
62.6565
52.7478
44.0942
36.6374
30.2776
24.902
20.4053
16.6784
13.607
11.0846
9.01893
7.33099
5.95433
4.83347
3.92156
3.17986
2.57691
2.08719
1.68983
1.36776
1.10682
0.895343
0.723635
0.583972
0.470096
0.376892
0.300358
0.236821
0.183471
0.136241
0.0959005
0.0473516
0.029036
0.028819
0.0468865
0.0958574
0.136961
0.184843
0.23841
0.301633
0.377443
0.469731
0.582794
0.722052
0.893903
1.10597
1.36759
1.69011
2.08767
2.57767
3.18129
3.9241
4.83751
5.96037
7.33988
9.0318
11.103
13.6331
16.7147
20.4552
24.9692
30.3667
36.7531
44.2415
52.9314
62.8804
74.1058
86.6042
100.369
115.384
131.594
148.825
166.69
184.564
201.63
217.123
230.703
241.787
249.764
260.667
266.257
251.917
238.659
226.791
215.654
205.427
195.953
187.185
179.096
171.701
165.039
159.17
154.157
150.071
146.982
144.96
144.068
144.362
145.9
148.741
152.958
158.652
165.97
175.126
186.428
200.281
217.164
237.601
262.15
291.349
325.696
365.594
411.333
463.053
520.742
584.259
653.309
727.322
805.552
886.996
970.27
1053.4
1133.68
1207.77
1271.16
1316.94
1336.24
1321.45
1263.87
1154.59
990.657
776.146
526.629
275.125
64.4286
-97.9444
-241.681
-387.658
-542.567
-707.166
-881.068
-1064.27
-1257.02
-1459.59
-1672.28
-1895.48
-2129.69
-2375.5
-2633.55
-2904.4
-3189.07
-3488.38
-3803.25
-4135.23
-4485.64
-4846.15
-5177.86
-5429.5
-5563.45
-5569.96
-5458.99
-5255.05
-4988.25
-4686.83
-4372.63
-4060.71
-3760.29
-3476.23
-3210.46
-2963.41
-2734.54
-2522.68
-2326.41
-2144.2
-1974.47