/*--------------------------------*- C++ -*----------------------------------*\
| =========                 |                                                 |
| \\      /  F ield         | OpenFOAM: The Open Source CFD Toolbox           |
|  \\    /   O peration     | Version:  2112                                  |
|   \\  /    A nd           | Website:  www.openfoam.com                      |
|    \\/     M anipulation  |                                                 |
\*---------------------------------------------------------------------------*/
FoamFile
{
    version     2.0;
    format      ascii;
    arch        "LSB;label=32;scalar=64";
    class       volScalarField;
    location    "1226";
    object      k;
}
// * * * * * * * * * * * * * * * * * * * * * * * * * * * * * * * * * * * * * //

dimensions      [0 2 -2 0 0 0 0];

internalField   nonuniform List<scalar> 
14336
(
0.000654814
0.000682372
0.000706663
0.000727817
0.000746082
0.000761797
0.000775374
0.000787338
0.00079823
0.000808696
0.000819375
0.000830709
0.000841203
0.00084942
0.000860287
0.000870635
0.000879238
0.000886239
0.000892336
0.000898203
0.000904113
0.000909527
0.000913416
0.000916126
0.000920521
0.000929725
0.000945249
0.000966446
0.000990999
0.00101929
0.00105649
0.00111219
0.00120541
0.00138194
0.00176387
0.0026921
0.00510571
0.0113802
0.02673
0.0609517
0.130438
0.261477
0.496014
0.897161
1.53731
2.42576
3.34891
3.29099
0.0021938
0.00331293
0.00275728
0.00248692
0.00237332
0.00232222
0.00230091
0.00228171
0.0022846
0.00230188
0.0023256
0.00235484
0.00238716
0.00242038
0.00245348
0.00248642
0.00252009
0.00255609
0.00259604
0.00264214
0.00269648
0.00276058
0.00283653
0.0029264
0.00303206
0.00315444
0.00329331
0.00344749
0.00361227
0.00379631
0.00398235
0.00416715
0.00433994
0.00448561
0.00458843
0.00463013
0.0045946
0.00446165
0.00419252
0.00369623
0.00295903
0.00239451
0.00201651
0.00142422
0.000676307
6.96651e-05
0.000269
0.00263172
0.00980041
0.0261574
0.0581884
0.113867
0.200791
0.323441
0.480899
0.667087
0.873792
1.09511
1.33057
1.58649
1.87412
2.21298
2.56487
3.18836
2.92767
2.44774
2.19068
2.18122
2.25003
2.19636
1.93829
1.6064
1.30548
1.0618
0.860174
0.684102
0.531032
0.397412
0.290728
0.197601
0.139579
0.104338
0.0804901
0.061527
0.0463396
0.0366194
0.0296967
0.0245467
0.0200324
0.0164616
0.0136621
0.0114585
0.00962561
0.00792737
0.00658505
0.00551997
0.0046719
0.00387975
0.00322708
0.00269608
0.00226236
0.00190772
0.00160587
0.00133116
0.00110442
0.000911867
0.000740367
0.000581671
0.000434275
0.000297401
0.000176116
7.92529e-05
1.96664e-05
5.67194e-07
7.03789e-06
2.0243e-05
3.01757e-05
3.94766e-05
4.81129e-05
5.37618e-05
4.94565e-05
4.17517e-05
5.4738e-05
0.000144309
0.000467078
0.00148619
0.00224291
0.00301059
3.07035
3.33887
2.42699
1.53948
0.898636
0.496856
0.261926
0.130663
0.0610561
0.0267736
0.0113962
0.00511089
0.00269365
0.00176433
0.00138208
0.00120546
0.00111222
0.0010565
0.00101929
0.000991003
0.000966449
0.00094525
0.000929725
0.000920521
0.000916126
0.000913416
0.000909528
0.000904113
0.000898203
0.000892336
0.000886239
0.000879239
0.000870636
0.000860288
0.000849426
0.000841231
0.000830745
0.000819411
0.000808732
0.000798266
0.000787375
0.000775411
0.000761835
0.000746122
0.000727857
0.000706705
0.000682416
0.000654859
0.000654749
0.00068231
0.000706603
0.000727759
0.000746026
0.000761742
0.000775321
0.000787286
0.000798179
0.000808645
0.000819324
0.000830658
0.000841163
0.00084941
0.000860284
0.000870634
0.000879237
0.000886239
0.000892336
0.000898202
0.000904113
0.000909527
0.000913416
0.000916126
0.000920521
0.000929724
0.000945248
0.000966445
0.000990997
0.00101928
0.00105648
0.00111218
0.00120537
0.00138181
0.00176347
0.00269076
0.00510122
0.0113665
0.0266932
0.0608657
0.130258
0.261132
0.495395
0.896131
1.53595
2.42587
3.36057
3.49823
0.00171182
0.000694451
0.000604421
0.000556858
0.000540945
0.000539478
0.000541874
0.000538148
0.000539058
0.000542578
0.000545864
0.000548722
0.000550429
0.000550178
0.000547973
0.000544346
0.000541601
0.000542504
0.000545896
0.000551406
0.000559475
0.000569893
0.000583279
0.000600134
0.000620914
0.000645995
0.000675582
0.000709662
0.000746131
0.000791398
0.000836547
0.000882456
0.000928534
0.000966628
0.000985491
0.000975018
0.000929539
0.000857418
0.000732066
0.000566022
0.000366765
0.000250812
0.000209311
0.000146351
6.86938e-05
6.99164e-06
2.67892e-05
0.00025704
0.000940857
0.00246856
0.00540445
0.0104396
0.0182842
0.0294836
0.0442872
0.0628361
0.0852992
0.11279
0.149008
0.202474
0.294047
0.425068
0.584305
0.800827
0.85993
0.736767
0.972232
2.34513
3.772
4.19083
3.54851
2.74354
2.13647
1.74723
1.48055
1.2526
1.04
0.786645
0.568754
0.354629
0.230564
0.159628
0.115324
0.0801179
0.05272
0.0367206
0.0264818
0.0198494
0.0145744
0.0107309
0.00800438
0.00605947
0.00459189
0.00335405
0.00249484
0.00190501
0.00150805
0.0011746
0.000923134
0.000735998
0.000592141
0.00048088
0.000393233
0.000315987
0.000256722
0.000209706
0.000170266
0.000135475
0.000103968
7.46383e-05
4.95935e-05
2.962e-05
1.53823e-05
8.24718e-06
5.55339e-06
5.88048e-06
7.08115e-06
8.52031e-06
9.76394e-06
1.00667e-05
8.662e-06
8.5316e-06
1.48603e-05
3.94117e-05
0.000113106
0.000333197
0.00073328
0.0036604
2.7664
3.32442
2.43025
1.54354
0.901266
0.498304
0.262673
0.131027
0.0612207
0.0268409
0.0114206
0.00511875
0.002696
0.00176503
0.00138231
0.00120554
0.00111225
0.00105652
0.0010193
0.000991008
0.000966452
0.000945253
0.000929727
0.000920522
0.000916127
0.000913416
0.000909528
0.000904114
0.000898203
0.000892337
0.00088624
0.000879239
0.000870637
0.00086029
0.000849432
0.000841255
0.000830776
0.000819442
0.000808763
0.000798298
0.000787407
0.000775444
0.000761868
0.000746156
0.000727893
0.000706742
0.000682455
0.000654899
0.000654651
0.000682216
0.000706512
0.000727672
0.000745942
0.000761661
0.000775241
0.000787208
0.000798102
0.000808569
0.000819248
0.000830581
0.000841104
0.000849396
0.000860281
0.000870632
0.000879236
0.000886238
0.000892335
0.000898202
0.000904112
0.000909527
0.000913416
0.000916125
0.00092052
0.000929724
0.000945247
0.000966443
0.000990994
0.00101928
0.00105647
0.00111215
0.0012053
0.00138162
0.00176286
0.0026887
0.0050944
0.0113456
0.026637
0.060732
0.129971
0.260555
0.4943
0.894175
1.53304
2.42442
3.3744
3.7016
0.0222696
0.00609479
0.00524147
0.00471235
0.00447745
0.00439173
0.00433792
0.00421257
0.00413654
0.00408976
0.00404359
0.00399713
0.00394466
0.00388169
0.00381008
0.00373421
0.00366694
0.00362296
0.00359709
0.00359276
0.00361333
0.0036537
0.00371892
0.0038126
0.00393824
0.00409968
0.0043003
0.00454214
0.00480515
0.00516208
0.0055215
0.00589027
0.00624474
0.00651238
0.00660112
0.00641957
0.00590822
0.00509029
0.00388232
0.00242279
0.000810374
4.93366e-05
3.97703e-05
2.7472e-05
1.27867e-05
1.50511e-06
5.20916e-06
4.58161e-05
0.000164977
0.000437911
0.00101627
0.00221947
0.00494508
0.0102057
0.0183408
0.030328
0.0435353
0.057447
0.083781
0.144579
0.289723
0.556941
0.856633
1.11402
1.66365
3.51793
10.7444
30.5588
46.8664
52.2411
47.1601
39.2956
32.3518
27.2957
23.4477
19.9014
16.4351
12.3429
8.81512
5.41635
3.43829
2.31312
1.62315
1.09402
0.696382
0.469159
0.327508
0.23825
0.169634
0.120984
0.0874065
0.0640935
0.0470065
0.0330184
0.023637
0.0174284
0.0133998
0.0100784
0.00765066
0.0059147
0.0046214
0.00365145
0.00292072
0.00229084
0.00183048
0.00148329
0.00120605
0.000971671
0.000764223
0.000570075
0.000409565
0.000280434
0.000174712
0.000107218
6.31333e-05
4.94292e-05
5.18972e-05
5.86973e-05
6.42059e-05
6.05391e-05
4.87655e-05
6.03548e-05
0.000134528
0.000368646
0.00101431
0.00294242
0.00838356
0.0529893
2.38673
3.29773
2.43355
1.54868
0.904665
0.500191
0.263651
0.131504
0.0614366
0.0269289
0.0114524
0.00512895
0.00269904
0.00176593
0.00138259
0.00120564
0.00111229
0.00105654
0.00101931
0.000991016
0.000966457
0.000945256
0.000929728
0.000920523
0.000916127
0.000913417
0.000909528
0.000904114
0.000898204
0.000892337
0.00088624
0.00087924
0.000870638
0.000860291
0.000849438
0.00084128
0.000830807
0.000819473
0.000808794
0.000798329
0.000787438
0.000775476
0.000761901
0.00074619
0.000727928
0.000706779
0.000682493
0.000654938
0.000654512
0.000682082
0.000706384
0.000727547
0.000745822
0.000761544
0.000775128
0.000787097
0.000797992
0.000808459
0.000819139
0.000830472
0.000841018
0.000849376
0.000860276
0.000870629
0.000879235
0.000886238
0.000892335
0.000898201
0.000904112
0.000909526
0.000913415
0.000916125
0.00092052
0.000929723
0.000945245
0.000966439
0.000990988
0.00101927
0.00105645
0.00111211
0.0012052
0.00138134
0.00176198
0.00268578
0.00508471
0.011316
0.0265565
0.0605388
0.129549
0.25969
0.492613
0.891077
1.52823
2.42099
3.38939
3.87088
0.193169
0.0555701
0.046196
0.0402728
0.0371782
0.0355139
0.0342491
0.0325578
0.0313828
0.0305414
0.0298005
0.0291435
0.0285172
0.0278804
0.0272327
0.0265947
0.0260299
0.0256077
0.0253137
0.0251917
0.0252633
0.0254899
0.0259054
0.0265344
0.0274017
0.0285354
0.0299619
0.0316998
0.0336132
0.0362245
0.0388964
0.0416672
0.0443142
0.0463425
0.047142
0.0460694
0.0426667
0.0368695
0.0283756
0.0178327
0.00582474
2.57774e-05
1.49651e-05
1.11541e-05
6.27326e-06
2.61506e-06
5.90474e-06
2.77054e-05
9.01849e-05
0.000236444
0.000583008
0.00122173
0.00266567
0.00547711
0.0100806
0.0175706
0.028656
0.0434689
0.0573384
0.0668984
0.0723051
0.0741132
0.0709869
0.0662859
0.193706
0.509048
1.67037
5.87351
15.0086
28.5911
38.8074
46.4231
52.3916
56.3396
57.4101
55.3253
50.7493
44.6185
37.3416
27.2468
19.6616
14.3722
10.6323
7.49193
4.94253
3.38585
2.37873
1.731
1.23129
0.875917
0.630684
0.46087
0.337023
0.236236
0.16881
0.124263
0.095315
0.0714316
0.0540324
0.0416477
0.0324615
0.0255997
0.0204509
0.016028
0.0128061
0.0103843
0.00845626
0.00682939
0.00538951
0.00403806
0.00291852
0.00201225
0.00126164
0.000778448
0.000459523
0.000359899
0.000379732
0.000433276
0.000479466
0.000456316
0.000373617
0.000477192
0.00109544
0.00308356
0.00871914
0.0260308
0.0766596
0.45724
1.96972
3.25083
2.43686
1.55548
0.909238
0.502732
0.264966
0.132145
0.0617256
0.0270462
0.0114945
0.00514242
0.00270303
0.00176711
0.00138296
0.00120578
0.00111235
0.00105656
0.00101933
0.000991025
0.000966464
0.00094526
0.00092973
0.000920524
0.000916128
0.000913417
0.000909529
0.000904114
0.000898204
0.000892337
0.00088624
0.00087924
0.000870639
0.000860293
0.000849443
0.000841303
0.000830837
0.000819503
0.000808824
0.000798359
0.000787469
0.000775507
0.000761933
0.000746223
0.000727962
0.000706814
0.000682529
0.000654976
0.000654321
0.000681898
0.000706206
0.000727377
0.000745657
0.000761384
0.000774971
0.000786944
0.000797841
0.000808309
0.000818988
0.000830321
0.000840901
0.000849348
0.000860269
0.000870625
0.000879233
0.000886236
0.000892334
0.000898201
0.000904111
0.000909526
0.000913415
0.000916124
0.000920519
0.000929721
0.000945242
0.000966434
0.00099098
0.00101925
0.00105642
0.00111205
0.00120506
0.00138095
0.00176079
0.00268181
0.00507149
0.0112752
0.0264452
0.0602698
0.128956
0.25846
0.490181
0.886544
1.52099
2.41473
3.40398
4.01589
0.965326
0.34067
0.279794
0.240132
0.217483
0.203683
0.192748
0.180107
0.170904
0.164011
0.158102
0.153027
0.148454
0.144125
0.139981
0.136083
0.132655
0.129939
0.127915
0.126852
0.126843
0.12768
0.129522
0.132483
0.136683
0.142262
0.149357
0.158072
0.167753
0.18101
0.194729
0.209085
0.222836
0.233619
0.23857
0.234522
0.219034
0.190913
0.14923
0.0957006
0.0320426
7.52596e-05
2.90338e-05
2.63257e-05
2.05725e-05
1.45694e-05
3.08893e-05
0.000111516
0.000297087
0.000550929
0.000901983
0.00135837
0.00199493
0.0029625
0.00387496
0.0046068
0.00513626
0.005473
0.00556048
0.00541373
0.00507963
0.00469583
0.00433291
0.00414885
0.0220356
0.073897
0.239855
0.82126
2.38479
5.83394
11.5622
20.8285
30.936
40.86
49.4299
55.2971
57.6365
56.0633
50.7945
43.3113
35.9206
29.4679
23.9544
19.0611
14.3559
10.9638
8.41313
6.55905
4.96557
3.71633
2.78298
2.09622
1.57135
1.12632
0.818191
0.609394
0.471032
0.355118
0.269772
0.208603
0.163007
0.12883
0.103133
0.0810176
0.0648858
0.0527517
0.0430857
0.0349189
0.0276703
0.0208315
0.0151388
0.0104972
0.00661653
0.0041052
0.00243893
0.00192482
0.00205025
0.00236627
0.00265428
0.00256104
0.00213547
0.00279054
0.00655175
0.0188597
0.0542661
0.162395
0.467361
2.14442
1.56891
3.17186
2.43956
1.56463
0.915523
0.506224
0.266768
0.13302
0.0621174
0.0272043
0.0115509
0.00516038
0.00270834
0.00176867
0.00138345
0.00120595
0.00111242
0.0010566
0.00101934
0.000991037
0.000966472
0.000945265
0.000929733
0.000920525
0.000916128
0.000913418
0.000909529
0.000904115
0.000898204
0.000892337
0.000886241
0.000879241
0.00087064
0.000860294
0.000849449
0.000841326
0.000830866
0.000819532
0.000808853
0.000798388
0.000787498
0.000775537
0.000761964
0.000746255
0.000727995
0.000706848
0.000682565
0.000655013
0.000654066
0.000681652
0.00070597
0.000727149
0.000745437
0.00076117
0.000774762
0.000786739
0.000797638
0.000808108
0.000818787
0.00083012
0.000840744
0.000849311
0.00086026
0.000870619
0.00087923
0.000886235
0.000892333
0.000898199
0.00090411
0.000909525
0.000913414
0.000916124
0.000920518
0.000929719
0.000945238
0.000966427
0.000990967
0.00101923
0.00105639
0.00111197
0.00120487
0.00138044
0.00175922
0.00267654
0.00505383
0.0112203
0.0262941
0.0599018
0.12814
0.256757
0.486789
0.880169
1.51056
2.40415
3.41539
4.14027
2.2432
1.15752
1.01186
0.901785
0.831563
0.784669
0.744383
0.69629
0.659595
0.630973
0.606055
0.58448
0.565117
0.547072
0.530075
0.514293
0.500336
0.488811
0.479831
0.474473
0.473032
0.474718
0.48004
0.489343
0.50298
0.521377
0.544944
0.573976
0.606138
0.650315
0.695761
0.742968
0.787401
0.821616
0.836972
0.82373
0.773968
0.681572
0.544511
0.362307
0.128603
0.000286438
0.000108517
0.000107203
9.41559e-05
7.25012e-05
0.000150532
0.000457074
0.000851799
0.00124798
0.00161863
0.00193366
0.00218725
0.00240595
0.00257278
0.00266822
0.0027367
0.00281465
0.00288911
0.00293613
0.00295141
0.00293854
0.00291209
0.00291738
0.00477206
0.0141362
0.0437097
0.14145
0.412392
1.05412
2.31325
4.76931
8.98025
16.3422
26.7444
38.0288
48.1966
54.8302
56.3911
53.0258
47.0955
40.4707
33.7653
27.5754
22.4119
18.4199
15.1585
12.6045
10.2032
8.1612
6.50219
5.21676
4.18795
3.22151
2.48653
1.9469
1.56539
1.22426
0.958995
0.760393
0.606934
0.488466
0.397182
0.316663
0.256819
0.211127
0.174258
0.142709
0.1143
0.0870235
0.0639701
0.04485
0.0285499
0.017864
0.010698
0.00851195
0.00915268
0.0106802
0.0121342
0.0118687
0.0100693
0.0134159
0.0319708
0.0919473
0.252625
0.666976
1.58452
4.82525
1.23874
3.04618
2.43991
1.57693
0.924244
0.511077
0.26926
0.134223
0.0626534
0.0274192
0.0116272
0.00518453
0.00271543
0.00177074
0.0013841
0.00120618
0.00111251
0.00105664
0.00101937
0.000991052
0.000966482
0.000945271
0.000929736
0.000920527
0.000916129
0.000913418
0.00090953
0.000904116
0.000898205
0.000892338
0.000886241
0.000879241
0.000870641
0.000860295
0.000849454
0.000841348
0.000830894
0.000819561
0.000808881
0.000798417
0.000787527
0.000775566
0.000761994
0.000746286
0.000728027
0.000706881
0.000682599
0.000655049
0.000653734
0.000681332
0.000705662
0.000726851
0.000745149
0.000760891
0.00077449
0.000786472
0.000797375
0.000807846
0.000818525
0.000829857
0.000840539
0.000849263
0.000860249
0.000870612
0.000879227
0.000886233
0.000892332
0.000898198
0.000904108
0.000909524
0.000913413
0.000916123
0.000920516
0.000929716
0.000945231
0.000966416
0.000990951
0.0010192
0.00105634
0.00111187
0.00120463
0.00137978
0.00175716
0.00266961
0.00503048
0.0111471
0.0260906
0.0594018
0.127025
0.254421
0.482129
0.871356
1.49575
2.38681
3.41826
4.23353
3.45212
2.43
2.21243
2.03866
1.92032
1.83787
1.76291
1.66675
1.59111
1.53046
1.47642
1.42884
1.38561
1.34495
1.30632
1.27012
1.23761
1.21022
1.18889
1.17485
1.16877
1.17055
1.18066
1.19965
1.2282
1.26714
1.31724
1.37898
1.44688
1.54028
1.63518
1.73233
1.82138
1.88711
1.91291
1.88046
1.7747
1.5809
1.2934
0.898193
0.343452
0.000776351
0.000302076
0.000329489
0.000340633
0.000293586
0.000555158
0.00116613
0.0016651
0.00204449
0.00231881
0.00251499
0.00266939
0.00281721
0.00294144
0.00302419
0.00306288
0.00306167
0.00302747
0.00296685
0.00288574
0.00279769
0.00273845
0.00275066
0.00296346
0.00477341
0.010846
0.0305507
0.0869223
0.227445
0.522867
1.1023
2.15309
4.18613
8.12544
15.6948
27.0671
39.3703
49.2124
53.3981
52.0662
47.4282
41.4442
35.3249
29.641
24.8576
20.6632
17.2499
14.4735
12.2308
10.3212
8.77083
7.43944
6.06732
4.93559
4.03788
3.3625
2.72625
2.20842
1.80474
1.49479
1.25783
1.06521
0.884168
0.742946
0.630473
0.536132
0.452176
0.3733
0.293847
0.22348
0.161985
0.10625
0.0679221
0.0412555
0.0330738
0.0357864
0.0420351
0.0481286
0.0475549
0.0409628
0.0550708
0.128143
0.332045
0.730015
1.47358
2.91231
7.25874
1.01396
2.86045
2.43387
1.59312
0.936359
0.517859
0.272732
0.13589
0.0633915
0.0277132
0.011731
0.0052172
0.00272498
0.00177351
0.00138497
0.00120649
0.00111264
0.0010567
0.0010194
0.000991073
0.000966496
0.000945279
0.000929741
0.000920529
0.00091613
0.000913419
0.000909531
0.000904116
0.000898205
0.000892338
0.000886241
0.000879242
0.000870642
0.000860297
0.000849459
0.000841369
0.000830921
0.000819588
0.000808908
0.000798444
0.000787554
0.000775594
0.000762023
0.000746315
0.000728058
0.000706913
0.000682632
0.000655083
0.000653313
0.000680926
0.00070527
0.000726474
0.000744784
0.000760536
0.000774144
0.000786132
0.000797039
0.000807511
0.00081819
0.000829521
0.000840278
0.000849201
0.000860234
0.000870603
0.000879222
0.000886231
0.00089233
0.000898196
0.000904107
0.000909522
0.000913412
0.000916121
0.000920514
0.000929711
0.000945223
0.000966402
0.000990929
0.00101917
0.00105627
0.00111174
0.00120431
0.00137892
0.00175446
0.0026605
0.00499967
0.0110499
0.0258175
0.0587238
0.125502
0.251226
0.475751
0.859235
1.47483
2.35898
3.40371
4.27815
4.09949
3.44021
3.3576
3.24728
3.16214
3.09622
3.02192
2.90137
2.80427
2.72503
2.65265
2.58848
2.52993
2.47441
2.42081
2.36944
2.3219
2.28047
2.24735
2.22485
2.21452
2.21709
2.23338
2.26426
2.31078
2.37411
2.45507
2.55371
2.65908
2.8012
2.93716
3.06608
3.17111
3.2316
3.22811
3.13986
2.95055
2.64138
2.20888
1.62482
0.705914
0.00172592
0.000669337
0.000758117
0.000862126
0.000908362
0.00141726
0.00203232
0.00240447
0.00265154
0.00283957
0.00297685
0.0030563
0.00308396
0.00307072
0.00302685
0.00296191
0.00287854
0.00278208
0.00267501
0.00256014
0.00246366
0.00242655
0.00245378
0.0025755
0.00303226
0.0045439
0.00915372
0.0223776
0.0567504
0.134728
0.295815
0.598699
1.16123
2.22646
4.44801
9.08455
18.48
30.7319
42.0889
48.6907
49.4995
46.2485
41.0883
35.3739
30.0972
25.4953
21.7115
18.5345
15.8808
13.5259
11.569
9.95985
8.55439
7.34535
6.3247
5.49293
4.63126
3.88291
3.26754
2.78046
2.40058
2.08323
1.77638
1.53051
1.32984
1.15781
1.00138
0.85699
0.717458
0.584216
0.455176
0.32289
0.220138
0.139788
0.113145
0.121581
0.141127
0.159683
0.15735
0.136826
0.178541
0.363692
0.73249
1.32425
2.25996
4.24448
9.2961
0.912586
2.61066
2.41371
1.61353
0.953103
0.527372
0.277596
0.138213
0.064414
0.0281182
0.011873
0.00526165
0.00273789
0.00177724
0.00138612
0.00120689
0.0011128
0.00105678
0.00101944
0.0009911
0.000966514
0.00094529
0.000929746
0.000920531
0.000916131
0.00091342
0.000909532
0.000904117
0.000898206
0.000892339
0.000886242
0.000879242
0.000870643
0.000860298
0.000849464
0.000841389
0.000830947
0.000819613
0.000808934
0.000798469
0.000787581
0.000775621
0.00076205
0.000746343
0.000728087
0.000706943
0.000682663
0.000655116
0.000652792
0.000680424
0.000704786
0.000726006
0.000744331
0.000760096
0.000773714
0.00078571
0.000796622
0.000807097
0.000817775
0.000829105
0.000839953
0.000849125
0.000860215
0.000870592
0.000879216
0.000886228
0.000892328
0.000898194
0.000904105
0.00090952
0.000913411
0.00091612
0.000920511
0.000929706
0.000945212
0.000966383
0.0009909
0.00101912
0.00105619
0.00111157
0.00120391
0.00137779
0.00175091
0.00264851
0.00495902
0.010921
0.025452
0.0578068
0.123427
0.246863
0.467034
0.842584
1.44536
2.31546
3.36032
4.26586
4.43927
4.03284
4.03528
3.94802
3.87648
3.814
3.75673
3.69589
3.64957
3.61318
3.57533
3.54283
3.51508
3.49016
3.46699
3.44544
3.42622
3.41074
3.4007
3.39835
3.4056
3.4239
3.4547
3.49906
3.55742
3.62921
3.7121
3.80195
3.88741
3.98314
4.05702
4.10574
4.11587
4.0707
3.95484
3.75082
3.44819
3.03786
2.53888
1.92939
0.906617
0.00267518
0.00120137
0.00139698
0.00164177
0.00199223
0.00242979
0.00271218
0.00288551
0.00297983
0.00301326
0.00300199
0.002959
0.00289563
0.0028176
0.00272871
0.00263594
0.0025285
0.00241064
0.00227549
0.00213049
0.00202357
0.00196618
0.00195803
0.00201692
0.00219865
0.00269397
0.00396396
0.00747501
0.0169804
0.0392017
0.0872967
0.183334
0.367065
0.710611
1.37351
2.70802
5.74075
11.9749
22.9376
34.57
42.9696
45.9139
44.2189
39.8843
34.7629
29.8515
25.6196
21.9958
18.9317
16.3234
14.1724
12.3851
10.8043
9.39776
8.17655
7.16883
6.26836
5.49586
4.81202
4.23063
3.74597
3.31816
2.89169
2.54063
2.24745
1.99165
1.75572
1.53707
1.32561
1.11799
0.909101
0.710118
0.532532
0.37166
0.307379
0.320346
0.356077
0.386942
0.373715
0.323804
0.389526
0.67269
1.15988
1.87039
3.14005
5.5687
11.0035
0.940636
2.31213
2.36705
1.63724
0.975951
0.540728
0.284445
0.141472
0.0658402
0.0286795
0.0120688
0.00532252
0.00275546
0.00178228
0.00138767
0.00120743
0.00111302
0.00105688
0.0010195
0.000991136
0.000966538
0.000945305
0.000929754
0.000920535
0.000916133
0.000913422
0.000909533
0.000904118
0.000898207
0.000892339
0.000886242
0.000879243
0.000870644
0.0008603
0.000849469
0.000841408
0.000830972
0.000819638
0.000808958
0.000798494
0.000787605
0.000775646
0.000762075
0.00074637
0.000728114
0.000706971
0.000682693
0.000655146
0.000652168
0.000679821
0.000704204
0.000725444
0.000743787
0.000759567
0.000773198
0.000785202
0.000796119
0.000806596
0.000817273
0.000828602
0.000839561
0.000849032
0.000860193
0.000870578
0.000879209
0.000886225
0.000892326
0.000898191
0.000904102
0.000909519
0.000913409
0.000916118
0.000920507
0.000929698
0.000945197
0.000966358
0.000990862
0.00101906
0.00105608
0.00111134
0.00120337
0.00137631
0.00174625
0.00263272
0.00490542
0.0107504
0.0249648
0.056573
0.120615
0.240932
0.455162
0.819779
1.40413
2.24972
3.27585
4.18562
4.51745
4.32722
4.4
4.38016
4.36774
4.34953
4.32512
4.29325
4.26984
4.24996
4.21866
4.1901
4.16574
4.14429
4.12505
4.10804
4.09404
4.08435
4.08053
4.08459
4.09795
4.12149
4.15585
4.20119
4.25708
4.32215
4.39301
4.46407
4.52569
4.58381
4.61094
4.59974
4.53452
4.3954
4.16531
3.82438
3.36779
2.79704
2.15807
1.47166
0.581055
0.00215988
0.00179806
0.0020994
0.00248605
0.00297725
0.00287408
0.00290236
0.00290508
0.00287426
0.00281958
0.00274866
0.00266502
0.00257581
0.00247958
0.00237187
0.00225437
0.00208909
0.00191493
0.00176094
0.00164888
0.00157484
0.0015316
0.00151645
0.00153057
0.00161422
0.00181854
0.00227489
0.00331208
0.00597782
0.0126723
0.0285974
0.0609596
0.124436
0.246026
0.479268
0.928219
1.84948
3.76962
8.01112
16.437
27.3513
36.7018
41.5189
41.4036
38.1878
33.7708
29.3675
25.375
21.9041
18.9414
16.4888
14.4542
12.6718
11.1327
9.82787
8.74377
7.76866
6.91652
6.13565
5.45465
4.87702
4.37778
3.92495
3.536
3.19738
2.88973
2.5957
2.31671
2.04091
1.76211
1.47526
1.19499
0.938381
0.713032
0.605754
0.61233
0.65355
0.686477
0.651545
0.555775
0.6179
0.970436
1.56082
2.52666
4.17011
6.84469
12.4446
1.09146
2.0047
2.2795
1.66068
1.00638
0.559459
0.294146
0.14608
0.0678463
0.0294644
0.0123407
0.00540653
0.00277951
0.00178912
0.00138976
0.00120816
0.00111332
0.00105702
0.00101958
0.000991183
0.000966569
0.000945324
0.000929764
0.00092054
0.000916135
0.000913424
0.000909535
0.00090412
0.000898208
0.00089234
0.000886243
0.000879244
0.000870645
0.000860301
0.000849473
0.000841426
0.000830994
0.00081966
0.000808981
0.000798517
0.000787628
0.000775669
0.0007621
0.000746394
0.00072814
0.000706998
0.00068272
0.000655175
0.000651447
0.000679123
0.00070353
0.000724792
0.000743155
0.000758951
0.000772597
0.000784611
0.000795534
0.000806013
0.000816689
0.000828015
0.000839103
0.000848924
0.000860166
0.000870562
0.000879201
0.000886221
0.000892323
0.000898188
0.000904099
0.000909516
0.000913408
0.000916115
0.000920502
0.000929688
0.000945177
0.000966325
0.000990813
0.00101898
0.00105594
0.00111105
0.00120267
0.00137436
0.00174012
0.00261196
0.00483494
0.0105257
0.0243195
0.0549272
0.11684
0.232938
0.439115
0.788789
1.34716
2.15416
3.13809
4.02985
4.44389
4.4482
4.5596
4.5814
4.6032
4.61262
4.61272
4.60655
4.60428
4.60253
4.5959
4.59024
4.58606
4.58278
4.58021
4.57866
4.57895
4.58223
4.5898
4.60323
4.62336
4.65022
4.68354
4.72235
4.76523
4.81002
4.85236
4.88538
4.90088
4.89793
4.85275
4.75517
4.58841
4.33046
3.96608
3.47613
2.87326
2.17784
1.46672
0.769753
0.182718
0.00214032
0.00232755
0.00271581
0.00302952
0.003217
0.00281246
0.00274106
0.00268821
0.00261709
0.0025344
0.0024438
0.00234249
0.00223021
0.002085
0.00190487
0.00173003
0.00157617
0.0014532
0.00136595
0.00130522
0.00126399
0.00123852
0.00122696
0.00122907
0.00126219
0.00134543
0.00153033
0.00191645
0.00274215
0.00472253
0.0096373
0.0209353
0.0450252
0.0905968
0.17742
0.34406
0.673181
1.31779
2.62972
5.49372
11.2524
20.8219
30.2223
36.3324
37.895
36.0135
32.5183
28.6331
24.9399
21.6491
18.854
16.5193
14.5003
12.7683
11.3085
10.0972
9.02012
8.07738
7.24572
6.5282
5.91328
5.37544
4.88314
4.45196
4.07163
3.72206
3.38491
3.0653
2.74976
2.42898
2.09523
1.74992
1.39602
1.10586
0.954977
0.950163
0.993898
1.02867
0.973418
0.82664
0.867976
1.29192
2.07975
3.37425
5.29662
8.05663
13.5527
1.42206
1.76199
2.14646
1.67637
1.04518
0.585568
0.307972
0.152663
0.0707009
0.0305747
0.0127228
0.00552364
0.00281273
0.00179847
0.00139258
0.00120913
0.00111371
0.00105721
0.00101968
0.000991246
0.00096661
0.000945349
0.000929777
0.000920546
0.000916138
0.000913426
0.000909538
0.000904122
0.000898209
0.000892341
0.000886244
0.000879244
0.000870646
0.000860302
0.000849478
0.000841442
0.000831016
0.000819682
0.000809002
0.000798538
0.00078765
0.000775691
0.000762122
0.000746417
0.000728163
0.000707023
0.000682746
0.000655201
0.000650648
0.000678349
0.000702781
0.000724068
0.000742452
0.000758266
0.000771928
0.000783952
0.00079488
0.00080536
0.000816034
0.000827357
0.00083859
0.000848803
0.000860136
0.000870544
0.000879191
0.000886216
0.000892319
0.000898184
0.000904096
0.000909514
0.000913406
0.000916112
0.000920496
0.000929674
0.000945151
0.000966283
0.000990748
0.00101888
0.00105575
0.00111067
0.00120175
0.00137181
0.00173209
0.00258481
0.00474281
0.0102316
0.0234725
0.0527556
0.111833
0.222293
0.417681
0.747225
1.26988
2.02047
2.93389
3.77853
4.2112
4.40538
4.55368
4.6217
4.67426
4.70914
4.73192
4.74772
4.76188
4.77333
4.78102
4.78818
4.7951
4.80159
4.80772
4.81385
4.82066
4.82905
4.84007
4.85488
4.87391
4.8964
4.9212
4.94618
4.96894
4.98657
4.99355
4.98105
4.94079
4.86703
4.73573
4.53435
4.24686
3.85034
3.3422
2.71474
2.02011
1.31476
0.653496
0.213119
0.0310517
0.002469
0.00276837
0.00293791
0.00302969
0.00307193
0.00259915
0.00249836
0.00243128
0.00233964
0.00223895
0.00211719
0.00195411
0.00175992
0.00158506
0.00144114
0.00132674
0.00124113
0.00118126
0.00113844
0.00110778
0.00108645
0.00107273
0.0010656
0.00106473
0.00107524
0.00110637
0.00117684
0.00132956
0.00164366
0.00228496
0.00378287
0.00740491
0.0158506
0.0344594
0.0694888
0.134513
0.259555
0.501429
0.969769
1.89745
3.76581
7.7299
15.164
23.8436
30.6453
33.7476
33.3563
30.9119
27.673
24.3582
21.3341
18.7211
16.4546
14.4999
12.8424
11.4627
10.2583
9.20783
8.29156
7.50423
6.82974
6.24148
5.70577
5.23394
4.81822
4.44288
4.09267
3.76322
3.44028
3.11146
2.76092
2.3721
1.94321
1.55709
1.35112
1.3282
1.37387
1.41345
1.34378
1.15328
1.18088
1.71883
2.76838
4.38138
6.49706
9.19856
14.1966
3.84657
1.91158
2.02174
1.6779
1.0917
0.621474
0.327793
0.162195
0.0748272
0.0321702
0.0132678
0.00568913
0.00285913
0.00181135
0.00139642
0.00121044
0.00111423
0.00105745
0.00101981
0.000991329
0.000966665
0.000945382
0.000929794
0.000920553
0.000916142
0.000913429
0.000909541
0.000904124
0.000898211
0.000892342
0.000886245
0.000879245
0.000870647
0.000860304
0.000849482
0.000841458
0.000831035
0.000819701
0.000809021
0.000798557
0.000787669
0.000775711
0.000762142
0.000746439
0.000728185
0.000707045
0.000682769
0.000655225
0.00064981
0.000677536
0.000701993
0.000723303
0.000741709
0.000757542
0.00077122
0.000783253
0.000794186
0.000804668
0.000815338
0.000826657
0.000838044
0.000848673
0.000860104
0.000870524
0.00087918
0.000886211
0.000892314
0.00089818
0.000904092
0.000909511
0.000913403
0.000916108
0.000920487
0.000929656
0.000945117
0.000966227
0.000990664
0.00101875
0.00105551
0.00111016
0.00120054
0.00136846
0.00172161
0.00254953
0.00462345
0.0098508
0.022374
0.0499297
0.10529
0.208338
0.389522
0.692513
1.16759
1.84067
2.65042
3.40528
3.79337
4.15535
4.36056
4.49456
4.59253
4.66455
4.71728
4.7574
4.78906
4.81376
4.83288
4.84901
4.86276
4.87445
4.88443
4.8931
4.90103
4.90885
4.91731
4.92719
4.93853
4.94975
4.95843
4.96107
4.95399
4.93353
4.89289
4.82046
4.70666
4.54288
4.30339
3.97429
3.54886
3.00955
2.38574
1.71068
1.04216
0.464803
0.149343
0.0313937
0.00514395
0.00269357
0.00278262
0.00282776
0.00284204
0.0028362
0.00236125
0.00224503
0.0021702
0.00203735
0.00187497
0.00166452
0.00148418
0.00134549
0.00124178
0.00116429
0.00110856
0.00106935
0.00104055
0.00101924
0.00100367
0.000992611
0.000985266
0.000981127
0.000979967
0.000981838
0.000992776
0.00101775
0.0010733
0.00119475
0.00144432
0.00194534
0.00308288
0.00585349
0.012433
0.0268202
0.0549162
0.105591
0.200279
0.37997
0.723478
1.37001
2.63852
5.30945
10.3034
17.8624
24.7448
29.0188
30.1309
28.8835
26.4369
23.6425
20.9596
18.5273
16.3772
14.5197
12.954
11.6025
10.4281
9.40647
8.52799
7.77647
7.12598
6.54178
6.0266
5.57437
5.17163
4.80401
4.46404
4.13769
3.81132
3.46636
3.0762
2.61545
2.1128
1.82444
1.7682
1.81146
1.85702
1.7781
1.55351
1.58221
2.27301
3.61787
5.5288
7.77166
10.3162
14.6619
14.7882
3.55045
2.17421
1.69579
1.14681
0.670093
0.356356
0.176228
0.0809205
0.0345146
0.0140618
0.00592755
0.00292502
0.00182934
0.0014017
0.00121221
0.00111493
0.00105778
0.00101999
0.000991439
0.000966738
0.000945426
0.000929817
0.000920564
0.000916147
0.000913433
0.000909545
0.000904128
0.000898214
0.000892344
0.000886246