/*--------------------------------*- C++ -*----------------------------------*\
| =========                 |                                                 |
| \\      /  F ield         | OpenFOAM: The Open Source CFD Toolbox           |
|  \\    /   O peration     | Version:  2112                                  |
|   \\  /    A nd           | Website:  www.openfoam.com                      |
|    \\/     M anipulation  |                                                 |
\*---------------------------------------------------------------------------*/
FoamFile
{
    version     2.0;
    format      ascii;
    arch        "LSB;label=32;scalar=64";
    class       volScalarField;
    location    "1226";
    object      nut;
}
// * * * * * * * * * * * * * * * * * * * * * * * * * * * * * * * * * * * * * //

dimensions      [0 2 -1 0 0 0 0];

internalField   nonuniform List<scalar> 
14336
(
0.00293468
0.00296266
0.00298657
0.00300689
0.00302416
0.00303893
0.00305187
0.00307098
0.00308563
0.00309711
0.00310901
0.00311965
0.00312
0.00310068
0.00307057
0.00300761
0.00289912
0.00273797
0.00252166
0.00225451
0.00194761
0.00162028
0.00129754
0.00100466
0.00075888
0.000564566
0.000416669
0.000306562
0.000225718
0.000167196
0.000125431
9.59727e-05
7.5606e-05
6.23847e-05
5.56196e-05
5.5872e-05
6.37507e-05
7.74448e-05
9.34167e-05
0.000111121
0.000134558
0.000168109
0.000207917
0.000243366
0.000254945
0.000217027
0.000100687
4.97056e-06
1.29707e-11
1.91163e-11
1.55362e-11
1.37259e-11
1.28657e-11
1.23942e-11
1.2116e-11
1.18756e-11
1.17716e-11
1.17581e-11
1.17908e-11
1.18627e-11
1.19595e-11
1.2069e-11
1.21851e-11
1.23069e-11
1.24379e-11
1.25857e-11
1.27574e-11
1.29635e-11
1.32138e-11
1.35156e-11
1.38789e-11
1.4314e-11
1.483e-11
1.54319e-11
1.61194e-11
1.68876e-11
1.77144e-11
1.86437e-11
1.95928e-11
2.05475e-11
2.14568e-11
2.22477e-11
2.28437e-11
2.31537e-11
2.30957e-11
2.25639e-11
2.13532e-11
1.89807e-11
1.53405e-11
1.25517e-11
1.0706e-11
7.67371e-12
3.70645e-12
3.89346e-13
1.53764e-12
1.54373e-11
5.92177e-11
1.63507e-10
3.78094e-10
7.73289e-10
1.43381e-09
2.44484e-09
3.87619e-09
5.7795e-09
8.20733e-09
1.12543e-08
1.51069e-08
2.01039e-08
2.67886e-08
3.60724e-08
4.82102e-08
6.94962e-08
6.38191e-08
4.601e-08
3.57092e-08
3.11763e-08
2.85087e-08
2.49332e-08
1.9917e-08
1.50871e-08
1.13095e-08
8.55782e-09
6.50155e-09
4.88481e-09
3.60617e-09
2.58221e-09
1.81727e-09
1.19396e-09
8.18744e-10
5.96401e-10
4.49842e-10
3.37192e-10
2.49677e-10
1.94418e-10
1.55665e-10
1.27257e-10
1.02869e-10
8.38414e-11
6.90929e-11
5.75986e-11
4.81344e-11
3.94667e-11
3.26605e-11
2.72909e-11
2.30364e-11
1.9088e-11
1.58482e-11
1.32215e-11
1.10822e-11
9.33755e-12
7.85615e-12
6.51077e-12
5.40208e-12
4.46169e-12
3.62477e-12
2.85041e-12
2.13074e-12
1.46148e-12
8.67162e-13
3.91155e-13
9.7342e-14
2.81697e-15
3.50939e-14
1.01415e-13
1.52011e-13
2.00147e-13
2.45763e-13
2.77011e-13
2.57407e-13
2.19854e-13
2.92149e-13
7.823e-13
2.57792e-12
8.3741e-12
1.29421e-11
1.78001e-11
3.6062e-06
9.45062e-05
0.000215054
0.000254416
0.000242772
0.000206764
0.000166484
0.000132783
0.000109626
9.24476e-05
7.6998e-05
6.36163e-05
5.58397e-05
5.56069e-05
6.2374e-05
7.55922e-05
9.59551e-05
0.000125406
0.000167159
0.000225664
0.00030649
0.000416578
0.00056446
0.000758766
0.00100455
0.00129743
0.00162019
0.00194754
0.00225445
0.00252161
0.00273794
0.00289908
0.00300759
0.00307056
0.00310068
0.00312008
0.00311977
0.00310913
0.00309724
0.00308577
0.0030711
0.00305194
0.00303901
0.00302424
0.00300698
0.00298666
0.00296274
0.00293477
0.00293455
0.00296253
0.00298645
0.00300677
0.00302404
0.00303882
0.00305176
0.00307082
0.00308544
0.00309692
0.00310883
0.00311948
0.00311988
0.00310067
0.00307059
0.00300765
0.00289916
0.00273802
0.00252172
0.00225458
0.00194771
0.0016204
0.00129767
0.00100481
0.00075903
0.000564705
0.000416786
0.000306654
0.000225784
0.00016724
0.000125459
9.59914e-05
7.56203e-05
6.23959e-05
5.56345e-05
5.59133e-05
6.39245e-05
7.80332e-05
9.47266e-05
0.000113195
0.000137078
0.000170473
0.000209638
0.000244251
0.000255541
0.000218955
0.000106978
9.10781e-06
8.06141e-11
3.19462e-11
2.68714e-11
2.40103e-11
2.26957e-11
2.2092e-11
2.1719e-11
2.11639e-11
2.08455e-11
2.0668e-11
2.05115e-11
2.03589e-11
2.01755e-11
1.99168e-11
1.95791e-11
1.91876e-11
1.8872e-11
1.87837e-11
1.8836e-11
1.89754e-11
1.9213e-11
1.95406e-11
1.99788e-11
2.05446e-11
2.1254e-11
2.21207e-11
2.31535e-11
2.43542e-11
2.56535e-11
2.7276e-11
2.89209e-11
3.06574e-11
3.25767e-11
3.43627e-11
3.55072e-11
3.5573e-11
3.4331e-11
3.24243e-11
2.80143e-11
2.19593e-11
1.44563e-11
1.00721e-11
8.58396e-12
6.14849e-12
2.96684e-12
3.11659e-13
1.23791e-12
1.2372e-11
4.74151e-11
1.30958e-10
3.0346e-10
6.23767e-10
1.16846e-09
2.02487e-09
3.28387e-09
5.05359e-09
7.4743e-09
1.08157e-08
1.57071e-08
2.35541e-08
3.78652e-08
5.75867e-08
8.20945e-08
1.15958e-07
1.25081e-07
1.01176e-07
1.23666e-07
2.66828e-07
3.83939e-07
3.83276e-07
2.94669e-07
2.08994e-07
1.50438e-07
1.14405e-07
9.06823e-08
7.2232e-08
5.68782e-08
4.10872e-08
2.85202e-08
1.71352e-08
1.07511e-08
7.19784e-09
5.04196e-09
3.40599e-09
2.18559e-09
1.48839e-09
1.05205e-09
7.74631e-10
5.5981e-10
4.06335e-10
2.99151e-10
2.23704e-10
1.67485e-10
1.20817e-10
8.86763e-11
6.68295e-11
5.23886e-11
4.06078e-11
3.18174e-11
2.53066e-11
2.03227e-11
1.64822e-11
1.34668e-11
1.08175e-11
8.78955e-12
7.1839e-12
5.83894e-12
4.65304e-12
3.57838e-12
2.57578e-12
1.71742e-12
1.0323e-12
5.42297e-13
2.94719e-13
2.01067e-13
2.15575e-13
2.62766e-13
3.20206e-13
3.71984e-13
3.92776e-13
3.43646e-13
3.4201e-13
6.08636e-13
1.6538e-12
4.87748e-12
1.48145e-11
3.37354e-11
1.72396e-10
3.14661e-06
8.50902e-05
0.000211967
0.000253735
0.000242365
0.000206019
0.000165383
0.000131542
0.000108557
9.17487e-05
7.668e-05
6.35269e-05
5.58201e-05
5.55968e-05
6.23625e-05
7.55769e-05
9.5936e-05
0.00012538
0.000167124
0.000225615
0.000306425
0.000416498
0.000564367
0.000758666
0.00100445
0.00129734
0.00162012
0.00194747
0.00225439
0.00252157
0.0027379
0.00289906
0.00300757
0.00307055
0.00310068
0.00312015
0.00311988
0.00310924
0.00309735
0.00308589
0.00307121
0.00305202
0.00303908
0.00302431
0.00300706
0.00298674
0.00296283
0.00293486
0.00293437
0.00296235
0.00298627
0.0030066
0.00302387
0.00303866
0.0030516
0.00307056
0.00308515
0.00309664
0.00310856
0.00311923
0.00311971
0.00310067
0.00307063
0.0030077
0.00289923
0.00273811
0.00252182
0.00225471
0.00194787
0.00162059
0.00129789
0.00100504
0.000759266
0.000564922
0.000416967
0.000306792
0.000225882
0.000167304
0.000125499
9.6018e-05
7.56403e-05
6.24111e-05
5.56531e-05
5.59637e-05
6.41489e-05
7.88405e-05
9.6613e-05
0.000116288
0.000140922
0.000174127
0.000212314
0.000245614
0.000256422
0.000221822
0.000118122
1.9578e-05
4.96858e-09
1.28518e-09
1.04742e-09
8.97395e-10
8.17237e-10
7.72405e-10
7.38507e-10
6.96779e-10
6.6674e-10
6.4393e-10
6.23134e-10
6.03844e-10
5.84991e-10
5.6578e-10
5.46568e-10
5.27978e-10
5.12271e-10
5.0207e-10
4.95716e-10
4.92927e-10
4.94024e-10
4.98241e-10
5.06227e-10
5.18455e-10
5.35408e-10
5.57637e-10
5.85671e-10
6.19895e-10
6.57714e-10
7.09287e-10
7.62374e-10
8.18728e-10
8.77109e-10
9.27181e-10
9.54364e-10
9.43762e-10
8.84469e-10
7.81976e-10
6.08651e-10
3.88582e-10
1.33349e-10
8.64433e-12
7.21533e-12
5.18012e-12
2.51718e-12
3.11398e-13
1.13878e-12
1.06276e-11
4.06653e-11
1.14347e-10
2.78601e-10
6.30061e-10
1.43243e-09
2.73767e-09
4.45137e-09
6.94349e-09
9.79889e-09
1.33895e-08
2.13141e-08
4.15207e-08
9.71398e-08
2.19117e-07
3.88688e-07
5.81452e-07
8.16268e-07
1.49129e-06
3.88707e-06
9.75259e-06
1.30312e-05
1.29795e-05
1.03299e-05
7.71018e-06
5.83509e-06
4.66774e-06
3.92571e-06
3.36733e-06
2.89727e-06
2.22017e-06
1.60082e-06
9.87856e-07
6.24567e-07
4.15191e-07
2.86661e-07
1.89668e-07
1.18396e-07
7.80841e-08
5.33636e-08
3.80292e-08
2.65594e-08
1.85961e-08
1.31998e-08
9.51692e-09
6.86856e-09
4.75323e-09
3.35573e-09
2.44372e-09
1.86088e-09
1.39133e-09
1.05164e-09
8.10243e-10
6.31427e-10
4.97987e-10
3.97901e-10
3.11989e-10
2.49393e-10
2.0232e-10
1.64821e-10
1.33153e-10
1.05105e-10
7.87621e-11
5.69091e-11
3.92862e-11
2.47735e-11
1.54255e-11
9.2286e-12
7.35119e-12
7.86205e-12
9.07097e-12
1.0138e-11
9.83542e-12
8.13045e-12
1.03088e-11
2.37432e-11
6.75306e-11
1.93817e-10
5.8939e-10
1.77195e-09
1.18893e-08
2.97182e-06
7.51326e-05
0.000207409
0.000252767
0.000241976
0.000205392
0.000164431
0.000130446
0.000107597
9.11153e-05
7.63944e-05
6.34512e-05
5.58053e-05
5.5587e-05
6.23497e-05
7.55597e-05
9.59148e-05
0.000125353
0.000167086
0.000225564
0.00030636
0.000416418
0.000564274
0.000758567
0.00100435
0.00129725
0.00162004
0.00194741
0.00225434
0.00252153
0.00273787
0.00289903
0.00300755
0.00307053
0.00310069
0.00312022
0.00311998
0.00310935
0.00309747
0.003086
0.00307131
0.00305209
0.00303916
0.00302439
0.00300713
0.00298682
0.00296291
0.00293494
0.0029341
0.00296209
0.00298602
0.00300636
0.00302363
0.00303842
0.00305137
0.00307021
0.00308474
0.00309624
0.00310817
0.00311887
0.00311947
0.00310066
0.00307068
0.00300777
0.00289933
0.00273822
0.00252197
0.00225489
0.00194809
0.00162086
0.00129819
0.00100536
0.000759587
0.000565211
0.000417202
0.000306968
0.000226002
0.00016738
0.000125545
9.60488e-05
7.56631e-05
6.24276e-05
5.567e-05
5.60054e-05
6.4359e-05
7.96835e-05
9.87333e-05
0.000119932
0.000145578
0.000178606
0.000215591
0.000247271
0.000257541
0.000225584
0.000132277
3.51108e-05
1.44567e-07
3.85279e-08
3.01141e-08
2.47348e-08
2.16133e-08
1.96485e-08
1.81292e-08
1.65699e-08
1.54193e-08
1.45393e-08
1.379e-08
1.31457e-08
1.25704e-08
1.2037e-08
1.15411e-08
1.10868e-08
1.07021e-08
1.04195e-08
1.02178e-08
1.01022e-08
1.00778e-08
1.01267e-08
1.02607e-08
1.04889e-08
1.08205e-08
1.12674e-08
1.18414e-08
1.25527e-08
1.33513e-08
1.44497e-08
1.56033e-08
1.68425e-08
1.81095e-08
1.92066e-08
1.98653e-08
1.97894e-08
1.87375e-08
1.66714e-08
1.32091e-08
8.59709e-09
2.92872e-09
1.38479e-11
8.78502e-12
6.93144e-12
4.02245e-12
1.80645e-12
4.38587e-12
2.17346e-11
7.18885e-11
1.8221e-10
3.98585e-10
6.93573e-10
1.35253e-09
2.66571e-09
5.04483e-09
9.6184e-09
1.83402e-08
3.35524e-08
5.19878e-08
7.2507e-08
9.76888e-08
1.28868e-07
1.53104e-07
1.72084e-07
3.95994e-07
8.22085e-07
2.12503e-06
5.81818e-06
1.18829e-05
1.84354e-05
1.95006e-05
1.94761e-05
1.91007e-05
1.85639e-05
1.78135e-05
1.68401e-05
1.57417e-05
1.45827e-05
1.3157e-05
9.61622e-06
7.09835e-06
5.41543e-06
4.24894e-06
3.07567e-06
2.05069e-06
1.41276e-06
9.95472e-07
7.24854e-07
5.15364e-07
3.65536e-07
2.6199e-07
1.90306e-07
1.38266e-07
9.63739e-08
6.84519e-08
5.00912e-08
3.82397e-08
2.85968e-08
2.16021e-08
1.66351e-08
1.29597e-08
1.02207e-08
8.17122e-09
6.41448e-09
5.13702e-09
4.17868e-09
3.41685e-09
2.77393e-09
2.20318e-09
1.66354e-09
1.21346e-09
8.46397e-10
5.38608e-10
3.38077e-10
2.03398e-10
1.62708e-10
1.7576e-10
2.0587e-10
2.34574e-10
2.31418e-10
1.96586e-10
2.60924e-10
6.27406e-10
1.85793e-09
5.53727e-09
1.73996e-08
5.4668e-08
3.71975e-07
2.82986e-06
6.50712e-05
0.000200635
0.000251321
0.000241597
0.000204918
0.000163664
0.00012952
0.000106762
9.05574e-05
7.61476e-05
6.33929e-05
5.57967e-05
5.55778e-05
6.23351e-05
7.55398e-05
9.58907e-05
0.000125323
0.000167046
0.000225511
0.000306293
0.000416336
0.00056418
0.000758466
0.00100425
0.00129716
0.00161996
0.00194734
0.00225429
0.00252149
0.00273784
0.002899
0.00300753
0.00307052
0.00310069
0.00312029
0.00312008
0.00310946
0.00309758
0.00308612
0.00307141
0.00305216
0.00303923
0.00302446
0.00300721
0.0029869
0.00296299
0.00293503
0.00293374
0.00296173
0.00298566
0.00300601
0.0030233
0.0030381
0.00305106
0.00306971
0.00308417
0.00309569
0.00310765
0.00311838
0.00311913
0.00310065
0.00307074
0.00300788
0.00289947
0.00273838
0.00252216
0.00225513
0.00194839
0.00162122
0.00129859
0.00100579
0.000760001
0.000565574
0.000417488
0.000307174
0.000226139
0.000167463
0.000125596
9.60818e-05
7.56873e-05
6.24444e-05
5.56826e-05
5.60287e-05
6.45151e-05
8.04324e-05
0.000100818
0.000123739
0.0001506
0.000183483
0.000219129
0.000249031
0.000258833
0.000230045
0.000147364
5.17535e-05
1.53874e-06
5.33397e-07
4.21889e-07
3.45247e-07
2.97571e-07
2.65654e-07
2.40395e-07
2.15704e-07
1.97151e-07
1.82818e-07
1.70837e-07
1.60767e-07
1.5206e-07
1.44308e-07
1.37353e-07
1.31164e-07
1.25915e-07
1.21807e-07
1.18678e-07
1.16657e-07
1.15773e-07
1.15788e-07
1.16817e-07
1.18937e-07
1.22238e-07
1.26838e-07
1.32864e-07
1.40433e-07
1.49009e-07
1.60939e-07
1.73591e-07
1.87278e-07
2.01184e-07
2.13335e-07
2.21149e-07
2.21608e-07
2.12042e-07
1.90882e-07
1.55114e-07
1.04931e-07
3.77914e-08
9.69065e-11
4.12426e-11
4.13082e-11
3.57043e-11
2.86887e-11
6.61989e-11
2.35926e-10
5.64766e-10
7.86507e-10
1.0989e-09
1.57493e-09
2.40736e-09
3.85968e-09
5.81581e-09
8.38077e-09
1.18496e-08
1.67611e-08
2.38001e-08
3.45557e-08
4.24916e-08
4.98039e-08
5.76444e-08
6.39932e-08
2.12424e-07
4.72967e-07
1.11089e-06
2.84576e-06
6.16271e-06
1.11646e-05
1.68836e-05
2.41451e-05
2.62599e-05
2.75899e-05
2.83129e-05
2.83947e-05
2.78927e-05
2.68468e-05
2.49728e-05
2.20608e-05
1.92816e-05
1.69774e-05
1.50515e-05
1.29262e-05
9.74418e-06
7.51951e-06
5.88596e-06
4.72156e-06
3.67374e-06
2.82574e-06
2.18673e-06
1.69186e-06
1.28649e-06
9.36665e-07
6.90817e-07
5.22092e-07
4.09249e-07
3.13474e-07
2.41655e-07
1.89365e-07
1.49753e-07
1.19646e-07
9.6805e-08
7.68983e-08
6.22575e-08
5.11748e-08
4.22915e-08
3.47217e-08
2.79114e-08
2.13514e-08
1.57943e-08
1.1171e-08
7.19632e-09
4.5667e-09
2.77721e-09
2.24812e-09
2.46421e-09
2.9376e-09
3.41773e-09
3.4443e-09
3.01111e-09
4.14093e-09
1.02809e-08
3.11266e-08
9.22765e-08
2.79729e-07
8.76344e-07
5.54886e-06
2.71645e-06
5.55351e-05
0.000190759
0.000249075
0.000241198
0.000204632
0.000163123
0.000128794
0.000106068
9.00842e-05
7.5946e-05
6.33563e-05
5.57961e-05
5.55693e-05
6.23179e-05
7.55163e-05
9.58623e-05
0.000125288
0.000167002
0.000225455
0.000306222
0.000416252
0.000564084
0.000758363
0.00100415
0.00129707
0.00161987
0.00194727
0.00225424
0.00252145
0.00273781
0.00289898
0.00300751
0.00307051
0.00310069
0.00312036
0.00312018
0.00310956
0.00309768
0.00308623
0.00307151
0.00305222
0.0030393
0.00302453
0.00300729
0.00298698
0.00296307
0.00293511
0.00293324
0.00296124
0.00298519
0.00300555
0.00302285
0.00303766
0.00305063
0.00306905
0.00308341
0.00309496
0.00310694
0.00311772
0.00311868
0.00310064
0.00307083
0.00300801
0.00289965
0.00273859
0.00252242
0.00225546
0.00194879
0.00162168
0.00129911
0.00100632
0.000760508
0.000566005
0.000417814
0.000307399
0.000226281
0.000167548
0.000125647
9.61161e-05
7.57127e-05
6.24613e-05
5.56898e-05
5.60285e-05
6.45898e-05
8.0973e-05
0.000102573
0.000127213
0.000155361
0.000188137
0.000222438
0.000250636
0.000260206
0.000234918
0.00016189
6.75934e-05
4.92507e-06
2.42452e-06
2.10485e-06
1.84343e-06
1.66875e-06
1.54522e-06
1.43884e-06
1.32371e-06
1.23314e-06
1.16016e-06
1.09661e-06
1.04113e-06
9.91512e-07
9.4612e-07
9.044e-07
8.66454e-07
8.33016e-07
8.04381e-07
7.79942e-07
7.62675e-07
7.52598e-07
7.46205e-07
7.44677e-07
7.48403e-07
7.57645e-07
7.72885e-07
7.94719e-07
8.23666e-07
8.56679e-07
9.06533e-07
9.58959e-07
1.01582e-06
1.07253e-06
1.12077e-06
1.15002e-06
1.14724e-06
1.10007e-06
9.97235e-07
8.31819e-07
5.96034e-07
2.41232e-07
6.3047e-10
2.80829e-10
3.386e-10
3.74054e-10
3.6833e-10
8.392e-10
2.2547e-09
3.03018e-09
3.85851e-09
5.05496e-09
6.85917e-09
9.73299e-09
1.47008e-08
2.34905e-08
3.47929e-08
4.63442e-08
6.01608e-08
6.29696e-08
5.66931e-08
5.28186e-08
5.05475e-08
4.98764e-08
4.91207e-08
8.9756e-08
3.13238e-07
6.53153e-07
1.51214e-06
3.24958e-06
6.14312e-06
9.95284e-06
1.5066e-05
2.10449e-05
2.91358e-05
3.42018e-05
3.66089e-05
3.85125e-05
3.95596e-05
3.94427e-05
3.80586e-05
3.56389e-05
3.26103e-05
2.88967e-05
2.4899e-05
2.10922e-05
1.81885e-05
1.58799e-05
1.41641e-05
1.16021e-05
9.15347e-06
7.23584e-06
5.80945e-06
4.70421e-06
3.65331e-06
2.88389e-06
2.34283e-06
1.97845e-06
1.6429e-06
1.37272e-06
1.16543e-06
9.81629e-07
8.1573e-07
6.84656e-07
5.63798e-07
4.71646e-07
3.99735e-07
3.40398e-07
2.88169e-07
2.39123e-07
1.89151e-07
1.44966e-07
1.06255e-07
7.06407e-08
4.58976e-08
2.83584e-08
2.32177e-08
2.57699e-08
3.11729e-08
3.68904e-08
3.7864e-08
3.39549e-08
4.79903e-08
1.19915e-07
3.45322e-07
8.95473e-07
2.31833e-06
6.99087e-06
3.38053e-05
2.68755e-06
4.70499e-05
0.000176998
0.000245479
0.000240706
0.000204573
0.000162856
0.000128301
0.000105533
8.97057e-05
7.57969e-05
6.33467e-05
5.58059e-05
5.55615e-05
6.22972e-05
7.54876e-05
9.58282e-05
0.000125247
0.000166952
0.000225393
0.000306147
0.000416162
0.000563982
0.000758256
0.00100404
0.00129697
0.00161978
0.0019472
0.00225418
0.00252141
0.00273777
0.00289895
0.0030075
0.0030705
0.0031007
0.00312042
0.00312027
0.00310966
0.00309779
0.00308633
0.00307161
0.00305229
0.00303937
0.0030246
0.00300736
0.00298705
0.00296315
0.00293519
0.00293258
0.00296059
0.00298456
0.00300494
0.00302226
0.00303709
0.00305007
0.00306818
0.00308243
0.003094
0.00310602
0.00311685
0.00311809
0.00310062
0.00307094
0.00300819
0.00289988
0.00273886
0.00252276
0.00225587
0.0019493
0.00162227
0.00129974
0.00100697
0.0007611
0.000566487
0.000418163
0.000307628
0.00022642
0.000167629
0.000125698
9.61523e-05
7.57403e-05
6.24797e-05
5.56923e-05
5.6004e-05
6.45741e-05
8.12423e-05
0.000103774
0.000129892
0.000159216
0.000191908
0.000225013
0.000251839
0.000261571
0.000239959
0.000175528
8.45153e-05
1.26088e-05
8.12547e-06
6.9043e-06
5.99425e-06
5.38532e-06
4.95266e-06
4.57762e-06
4.17066e-06
3.85155e-06
3.59379e-06
3.36989e-06
3.17451e-06
2.99993e-06
2.84069e-06
2.69493e-06
2.56313e-06
2.44728e-06
2.34919e-06
2.26901e-06
2.20751e-06
2.16416e-06
2.13703e-06
2.12586e-06
2.13073e-06
2.15237e-06
2.19238e-06
2.25302e-06
2.33674e-06
2.43603e-06
2.59095e-06
2.76208e-06
2.95663e-06
3.15996e-06
3.3452e-06
3.47786e-06
3.51553e-06
3.41786e-06
3.14325e-06
2.66808e-06
1.94743e-06
8.08928e-07
2.10356e-09
1.00523e-09
1.53304e-09
2.75441e-09
3.67267e-09
7.8467e-09
1.33541e-08
1.60738e-08
2.14008e-08
3.13453e-08
4.94674e-08
7.25785e-08
8.12351e-08
7.38371e-08
6.65761e-08
6.16838e-08
5.83864e-08
5.60173e-08
5.41574e-08
5.29984e-08
5.34923e-08
5.84597e-08
6.79809e-08
8.61532e-08
1.72542e-07
4.19703e-07
8.52172e-07
1.77735e-06
3.44501e-06
5.90347e-06
9.27739e-06
1.34327e-05
1.9043e-05
2.67037e-05
3.79863e-05
4.50645e-05
4.88708e-05
5.19407e-05
5.34228e-05
5.32871e-05
5.15676e-05
4.81806e-05
4.36299e-05
3.87694e-05
3.41224e-05
2.94181e-05
2.53823e-05
2.18388e-05
1.89543e-05
1.65779e-05
1.47494e-05
1.29334e-05
1.02333e-05
8.14746e-06
6.62434e-06
5.58917e-06
4.62084e-06
3.85469e-06
3.28361e-06
2.85952e-06
2.54475e-06
2.29141e-06
2.03175e-06
1.83002e-06
1.67299e-06
1.54518e-06
1.43405e-06
1.3064e-06
1.10809e-06
9.195e-07
7.36474e-07
5.34348e-07
3.71886e-07
2.38854e-07
1.97578e-07
2.20016e-07
2.66882e-07
3.16909e-07
3.26976e-07
2.97308e-07
4.2034e-07
9.69946e-07
2.24879e-06
4.0249e-06
9.97054e-06
2.99324e-05
0.000106224
2.8535e-06
3.98601e-05
0.000159176
0.000239632
0.000239951
0.000204777
0.000162922
0.000128085
0.00010518
8.94343e-05
7.57095e-05
6.33707e-05
5.58292e-05
5.55545e-05
6.22716e-05
7.54519e-05
9.5786e-05
0.000125198
0.000166893
0.000225322
0.000306063
0.000416065
0.000563873
0.00075814
0.00100393
0.00129686
0.00161969
0.00194712
0.00225412
0.00252136
0.00273774
0.00289892
0.00300748
0.00307049
0.0031007
0.00312048
0.00312036
0.00310976
0.00309789
0.00308644
0.0030717
0.00305235
0.00303943
0.00302467
0.00300743
0.00298712
0.00296323
0.00293527
0.00293174
0.00295976
0.00298375
0.00300415
0.0030215
0.00303634
0.00304935
0.00306708
0.00308116
0.00309278
0.00310484
0.00311575
0.00311734
0.0031006
0.00307108
0.00300841
0.00290018
0.00273921
0.00252318
0.0022564
0.00194993
0.00162298
0.0013005
0.00100771
0.000761754
0.000566994
0.00041851
0.000307845
0.000226549
0.000167707
0.00012575
9.61928e-05
7.57729e-05
6.25014e-05
5.56917e-05
5.59566e-05
6.44728e-05
8.12382e-05
0.000104331
0.000131499
0.000161713
0.000194323
0.000226517
0.000252491
0.000262881
0.000245102
0.000188846
0.000104401
2.33381e-05
1.84386e-05
1.68795e-05
1.55419e-05
1.4545e-05
1.37599e-05
1.28862e-05
1.16283e-05
1.06479e-05
9.86071e-06
9.18608e-06
8.60402e-06
8.08771e-06
7.61772e-06
7.18505e-06
6.78834e-06
6.43196e-06
6.12186e-06
5.86273e-06
5.6579e-06
5.50751e-06
5.40929e-06
5.36162e-06
5.36448e-06
5.42053e-06
5.5359e-06
5.71973e-06
5.98229e-06
6.30945e-06
6.78874e-06
7.32172e-06
7.90775e-06
8.49601e-06
9.01481e-06
9.3856e-06
9.51761e-06
9.32616e-06
8.71281e-06
7.6187e-06
5.86051e-06
2.66304e-06
7.08135e-09
3.43167e-09
5.99076e-09
1.40187e-08
2.88647e-08
5.49373e-08
7.65577e-08
9.52526e-08
1.21637e-07
1.26127e-07
1.1062e-07
9.49284e-08
8.28962e-08
7.37797e-08
6.68312e-08
6.16091e-08
5.79435e-08
5.67857e-08
5.96989e-08
6.76652e-08
8.24176e-08
1.06836e-07
1.30253e-07
1.55088e-07
2.10752e-07
3.22902e-07
5.40603e-07
1.00314e-06
1.92393e-06
3.44883e-06
5.71386e-06
8.71852e-06
1.26605e-05
1.7868e-05
2.55609e-05
3.69042e-05
5.4799e-05
6.048e-05
6.52195e-05
6.84862e-05
6.98531e-05
6.91174e-05
6.62374e-05
6.17417e-05
5.62368e-05
4.9959e-05
4.38756e-05
3.8511e-05
3.38805e-05
2.94425e-05
2.57207e-05
2.265e-05
1.97703e-05
1.73741e-05
1.54528e-05
1.39426e-05
1.16307e-05
9.60215e-06
8.09333e-06
7.02406e-06
6.28126e-06
5.69639e-06
5.07623e-06
4.60488e-06
4.24782e-06
3.96503e-06
3.72443e-06
3.5217e-06
3.34099e-06
3.22587e-06
3.22168e-06
2.82588e-06
2.32578e-06
1.68123e-06
1.42936e-06
1.56696e-06
1.85319e-06
2.14261e-06
2.16344e-06
1.93838e-06
2.54926e-06
4.48874e-06
7.21374e-06
1.39683e-05
3.44159e-05
8.69991e-05
0.000232555
3.43228e-06
3.39893e-05
0.000138241
0.000230198
0.000238571
0.000205262
0.000163402
0.000128206
0.000105044
8.92882e-05
7.56964e-05
6.34378e-05
5.58701e-05
5.55486e-05
6.22395e-05
7.54067e-05
9.5733e-05
0.000125137
0.000166822
0.000225239
0.000305966
0.000415955
0.000563752
0.000758012
0.0010038
0.00129674
0.00161959
0.00194704
0.00225406
0.00252131
0.0027377
0.0028989
0.00300746
0.00307048
0.0031007
0.00312054
0.00312045
0.00310985
0.00309798
0.00308653
0.00307178
0.00305241
0.00303949
0.00302473
0.00300749
0.00298719
0.0029633
0.00293534
0.00293068
0.00295872
0.00298274
0.00300317
0.00302054
0.00303542
0.00304844
0.0030657
0.0030796
0.00309126
0.00310338
0.00311437
0.0031164
0.00310056
0.00307125
0.00300868
0.00290054
0.00273963
0.0025237
0.00225702
0.00195068
0.00162382
0.00130136
0.00100853
0.000762434
0.000567492
0.000418833
0.00030804
0.000226667
0.000167784
0.000125809
9.62418e-05
7.58138e-05
6.25292e-05
5.56895e-05
5.58867e-05
6.4293e-05
8.09949e-05
0.000104292
0.000132017
0.000162741
0.000195248
0.000226875
0.00025257
0.000264126
0.000250433
0.000202474
0.000127092
3.92385e-05
3.3116e-05
2.99715e-05
2.71725e-05
2.49932e-05
2.32293e-05
2.17215e-05
2.0365e-05
1.9284e-05
1.83985e-05
1.76252e-05
1.69697e-05
1.64047e-05
1.59046e-05
1.54526e-05
1.50393e-05
1.46607e-05
1.43178e-05
1.40145e-05
1.3758e-05
1.35564e-05
1.34178e-05
1.33506e-05
1.33612e-05
1.34536e-05
1.36274e-05
1.38774e-05
1.41926e-05
1.45517e-05
1.49731e-05
1.53953e-05
1.58021e-05
1.6155e-05
1.6404e-05
1.64998e-05
1.63878e-05
1.60323e-05
1.53993e-05
1.4493e-05
1.26466e-05
6.40652e-06
2.04304e-08
1.23051e-08
2.6575e-08
7.57562e-08
1.70462e-07
2.5561e-07
2.27764e-07
1.97258e-07
1.63495e-07
1.34536e-07
1.11534e-07
9.3656e-08
8.00859e-08
7.01537e-08
6.43718e-08
6.45901e-08
7.06042e-08
8.14809e-08
9.53334e-08
1.11522e-07
1.35234e-07
1.58765e-07
1.74125e-07
1.92873e-07
2.41633e-07
3.27636e-07
4.53885e-07
6.63587e-07
1.15111e-06
2.03356e-06
3.46301e-06
5.5484e-06
8.43455e-06
1.2299e-05
1.76442e-05
2.52214e-05
3.7588e-05
5.54137e-05
7.37706e-05
7.96788e-05
8.4887e-05
8.79384e-05
8.8689e-05
8.69073e-05
8.27329e-05
7.65588e-05
6.93833e-05
6.22625e-05
5.55996e-05
4.91117e-05
4.33493e-05
3.85078e-05
3.42992e-05
3.03617e-05
2.68877e-05
2.41051e-05
2.14411e-05
1.92016e-05
1.7304e-05
1.57799e-05
1.45746e-05
1.34037e-05
1.18333e-05
1.06596e-05
9.78857e-06
9.11489e-06
8.55472e-06
8.11598e-06
7.78509e-06
7.61805e-06
7.72668e-06
8.49616e-06
9.45357e-06
8.48026e-06
7.86768e-06
8.41877e-06
9.44806e-06
1.03763e-05
1.01112e-05
8.68712e-06
9.69645e-06
1.34554e-05
2.2119e-05
4.28379e-05
9.02241e-05
0.000191607
0.000409918
4.84611e-06
2.94007e-05
0.000116261
0.000215611
0.000235823
0.000205981
0.000164396
0.000128755
0.000105177
8.92959e-05
7.57764e-05
6.35611e-05
5.59349e-05
5.55441e-05
6.21986e-05
7.53487e-05
9.56653e-05
0.00012506
0.000166735
0.000225138
0.000305852
0.000415828
0.000563613
0.000757866
0.00100365
0.00129661
0.00161947
0.00194695
0.00225399
0.00252126
0.00273766
0.00289887
0.00300744
0.00307046
0.00310071
0.0031206
0.00312053
0.00310993
0.00309807
0.00308663
0.00307187
0.00305247
0.00303955
0.0030248
0.00300756
0.00298725
0.00296336
0.00293541
0.00292938
0.00295745
0.0029815
0.00300197
0.00301937
0.00303428
0.00304734
0.00306404
0.00307771
0.00308943
0.00310161
0.00311271
0.00311527
0.00310052
0.00307145
0.00300901
0.00290097
0.00274013
0.00252431
0.00225776
0.00195154
0.00162475
0.00130229
0.00100936
0.000763097
0.000567951
0.00041912
0.000308215
0.000226781
0.00016787
0.00012588
9.63044e-05
7.58672e-05
6.25659e-05
5.56865e-05
5.57923e-05
6.40342e-05
8.05443e-05
0.000103762
0.000131612
0.000162476
0.000194842
0.000226202
0.000252102
0.000265282
0.000256054
0.000216746
0.000151682
5.95269e-05
5.35923e-05
4.81746e-05
4.39738e-05
4.04899e-05
3.7579e-05
3.51204e-05
3.30484e-05
3.12997e-05
2.97923e-05
2.83962e-05
2.71961e-05
2.61682e-05
2.52761e-05
2.44932e-05
2.38018e-05
2.31916e-05
2.26586e-05
2.22033e-05
2.183e-05
2.15439e-05
2.13498e-05
2.12521e-05
2.12537e-05
2.13551e-05
2.15531e-05
2.18366e-05
2.21844e-05
2.25607e-05
2.29893e-05
2.33607e-05
2.36475e-05
2.37898e-05
2.37131e-05
2.33573e-05
2.26511e-05
2.15791e-05
2.01226e-05
1.83212e-05
1.5741e-05
7.95594e-06
3.59029e-08
5.62928e-08
1.54548e-07
3.36893e-07
4.25802e-07
3.20152e-07
2.53436e-07
2.01521e-07
1.60489e-07
1.28683e-07
1.04582e-07
8.71842e-08
7.79015e-08
7.78508e-08
8.46939e-08
9.5805e-08
1.02913e-07
1.09313e-07
1.19831e-07
1.39279e-07
1.59022e-07
1.69938e-07
1.74318e-07
1.79193e-07
2.15385e-07
2.95021e-07
4.0842e-07
5.69343e-07
7.98133e-07
1.28926e-06
2.19134e-06
3.56091e-06
5.55821e-06
8.37395e-06
1.23276e-05
1.78395e-05
2.60792e-05
3.80961e-05
5.70616e-05
8.56071e-05
9.60756e-05
0.000102914
0.000107914
0.000110379
0.000110025
0.000106591
0.000100523
9.29357e-05
8.47909e-05
7.64562e-05
6.8556e-05
6.15555e-05
5.54392e-05
4.97471e-05
4.46259e-05
4.03586e-05
3.6649e-05
3.34496e-05
3.03861e-05
2.77372e-05
2.55974e-05
2.37909e-05
2.20608e-05
2.06844e-05
1.96063e-05
1.87083e-05
1.78841e-05
1.71877e-05
1.65971e-05
1.61717e-05
1.61328e-05
1.7809e-05
2.42739e-05
2.64114e-05
2.75719e-05
2.96477e-05
3.22731e-05
3.4442e-05
3.32687e-05
2.78431e-05
2.75142e-05
3.70839e-05
5.72687e-05
0.000102334
0.000193741
0.000349142
0.000513347
7.84507e-06
2.61502e-05
9.56403e-05
0.000194873
0.000230347
0.000206703
0.000166011
0.000129859
0.000105661
8.95023e-05
7.5977e-05
6.37595e-05
5.60323e-05
5.5542e-05
6.2146e-05
7.52735e-05
9.55778e-05
0.000124962
0.000166625
0.000225014
0.000305714
0.000415675
0.000563447
0.000757694
0.00100348
0.00129645
0.00161934
0.00194684
0.0022539
0.0025212
0.00273762
0.00289884
0.00300742
0.00307045
0.00310071
0.00312065
0.0031206
0.00311001
0.00309815
0.00308671
0.00307194
0.00305252
0.00303961
0.00302485
0.00300761
0.00298732
0.00296343
0.00293547
0.00292785
0.00295595
0.00298004
0.00300055
0.00301799
0.00303294
0.00304604
0.0030621
0.00307551
0.0030873
0.00309954
0.00311076
0.00311393
0.00310046
0.00307169
0.00300938
0.00290146
0.00274071
0.002525
0.00225858
0.00195248
0.00162574
0.00130324
0.00101017
0.000763704
0.000568353
0.000419372
0.00030838
0.000226904
0.000167973
0.000125972
9.63864e-05
7.5938e-05
6.26153e-05
5.56838e-05
5.56681e-05
6.36849e-05
7.98904e-05
0.000102817
0.000130467
0.000161175
0.000193336
0.000224616
0.000251047
0.000266235
0.000261919
0.000231799
0.000178613
8.36724e-05
7.96772e-05
7.16151e-05
6.60299e-05
6.10837e-05
5.68804e-05
5.3285e-05
5.02188e-05
4.75685e-05
4.52573e-05
4.31806e-05
4.13821e-05
3.9829e-05
3.848e-05
3.73026e-05
3.62731e-05
3.5376e-05
3.46021e-05
3.39481e-05
3.34142e-05
3.30005e-05
3.27055e-05
3.2527e-05
3.24594e-05
3.24964e-05
3.26287e-05
3.28344e-05
3.30761e-05
3.33109e-05
3.3534e-05
3.36124e-05
3.34946e-05
3.31006e-05
3.23208e-05
3.10933e-05
2.93227e-05
2.70198e-05
2.41917e-05
2.08082e-05
1.54687e-05
5.79371e-06
1.55437e-07
3.20986e-07
5.92856e-07
5.58348e-07
4.6202e-07
3.16979e-07
2.43272e-07
1.89881e-07
1.4899e-07
1.19405e-07
1.02945e-07
9.9394e-08
1.04061e-07
1.08423e-07
1.07183e-07
1.05371e-07
1.06188e-07
1.13512e-07
1.30382e-07
1.41403e-07
1.4947e-07
1.57621e-07
1.55667e-07
1.55912e-07
1.76201e-07
2.18895e-07
3.1827e-07
4.6969e-07
6.51394e-07
9.46742e-07
1.45651e-06
2.35945e-06
3.78065e-06
5.76444e-06
8.58686e-06
1.26141e-05
1.85351e-05
2.69919e-05
3.94802e-05
5.91503e-05
8.76009e-05
0.000115066
0.000122842
0.000129943
0.000134253
0.000135653
0.000133655
0.000128458
0.000120907
0.000111919
0.000102409
9.32246e-05
8.48402e-05
7.7061e-05
6.99729e-05
6.384e-05
5.85825e-05
5.40094e-05
4.97272e-05
4.59629e-05
4.28373e-05
4.02373e-05
3.79645e-05
3.60668e-05
3.45295e-05
3.31993e-05
3.19131e-05
3.08539e-05
3.00166e-05
2.94789e-05
2.9652e-05
3.24142e-05
4.32999e-05
5.68289e-05
6.534e-05
7.26279e-05
7.93619e-05
8.47982e-05
8.33245e-05
7.0517e-05
6.4555e-05
8.15902e-05
0.000124661
0.000210566
0.000352458
0.000556083
0.000638588
1.4311e-05
2.46884e-05
7.82522e-05
0.000168852
0.000220086
0.000206773
0.000168313
0.000131696
0.000106625
8.99799e-05
7.63412e-05
6.40606e-05
5.61752e-05
5.55436e-05
6.2078e-05
7.51753e-05
9.54638e-05
0.000124835
0.000166484
0.000224858
0.000305541
0.000415486
0.000563247
0.000757487
0.00100328
0.00129626
0.00161917
0.00194671
0.00225381
0.00252113
0.00273757
0.0028988
0.0030074
0.00307044
0.00310071
0.0031207
0.00312068
0.00311009
0.00309823
0.00308679
0.00307201
0.00305257
0.00303966
0.00302491
0.00300767
0.00298737
0.00296349
0.00293553
0.0029261
0.00295424
0.00297837
0.00299893
0.00301642
0.00303141
0.00304455
0.00305993
0.00307306
0.00308491
0.00309723
0.00310858
0.00311242
0.00310038
0.00307194
0.00300979
0.002902
0.00274133
0.00252574
0.00225944
0.00195346
0.00162673
0.00130414
0.00101091
0.000764233
0.000568704
0.000419607
0.000308557