/*--------------------------------*- C++ -*----------------------------------*\
| =========                 |                                                 |
| \\      /  F ield         | OpenFOAM: The Open Source CFD Toolbox           |
|  \\    /   O peration     | Version:  2112                                  |
|   \\  /    A nd           | Website:  www.openfoam.com                      |
|    \\/     M anipulation  |                                                 |
\*---------------------------------------------------------------------------*/
FoamFile
{
    version     2.0;
    format      ascii;
    arch        "LSB;label=32;scalar=64";
    class       volScalarField;
    location    "1226";
    object      omega;
}
// * * * * * * * * * * * * * * * * * * * * * * * * * * * * * * * * * * * * * //

dimensions      [0 0 -1 0 0 0 0];

internalField   nonuniform List<scalar> 
14336
(
0.223129
0.230325
0.236614
0.242049
0.246708
0.250679
0.254065
0.25638
0.258692
0.261113
0.263549
0.266282
0.269617
0.273946
0.280171
0.289477
0.303278
0.323684
0.353869
0.398403
0.464216
0.561338
0.703961
0.911878
1.213
1.64679
2.26858
3.15253
4.39043
6.09634
8.4229
11.5887
15.9433
22.1518
31.713
48.1834
80.0888
146.946
286.138
548.515
969.38
1555.4
2385.64
3686.46
6029.96
11177.2
33260.5
662097
1.69135e+08
1.73304e+08
1.77475e+08
1.81184e+08
1.84468e+08
1.87363e+08
1.89906e+08
1.92134e+08
1.94078e+08
1.9577e+08
1.97238e+08
1.98509e+08
1.99604e+08
2.00545e+08
2.01351e+08
2.02035e+08
2.02613e+08
2.03096e+08
2.03492e+08
2.03814e+08
2.04066e+08
2.04251e+08
2.04377e+08
2.04444e+08
2.04455e+08
2.0441e+08
2.04307e+08
2.04143e+08
2.03917e+08
2.03624e+08
2.03256e+08
2.02806e+08
2.02264e+08
2.01621e+08
2.00862e+08
1.99973e+08
1.98938e+08
1.97734e+08
1.96342e+08
1.94736e+08
1.9289e+08
1.90773e+08
1.88353e+08
1.85597e+08
1.82468e+08
1.78929e+08
1.74944e+08
1.70478e+08
1.65498e+08
1.59977e+08
1.53899e+08
1.4725e+08
1.4004e+08
1.32295e+08
1.24065e+08
1.15423e+08
1.06465e+08
9.73063e+07
8.8077e+07
7.89146e+07
6.99597e+07
6.13481e+07
5.32019e+07
4.58783e+07
4.58745e+07
5.32002e+07
6.13478e+07
6.99641e+07
7.89241e+07
8.80895e+07
9.73185e+07
1.06475e+08
1.15432e+08
1.24073e+08
1.32303e+08
1.40047e+08
1.47257e+08
1.53904e+08
1.59981e+08
1.65501e+08
1.7048e+08
1.74945e+08
1.7893e+08
1.82469e+08
1.85598e+08
1.88354e+08
1.90773e+08
1.92891e+08
1.94737e+08
1.96342e+08
1.97735e+08
1.98938e+08
1.99974e+08
2.00862e+08
2.01621e+08
2.02264e+08
2.02805e+08
2.03256e+08
2.03624e+08
2.03917e+08
2.04143e+08
2.04307e+08
2.0441e+08
2.04455e+08
2.04444e+08
2.04377e+08
2.04252e+08
2.04066e+08
2.03814e+08
2.03493e+08
2.03095e+08
2.02613e+08
2.02034e+08
2.01349e+08
2.00545e+08
1.99604e+08
1.9851e+08
1.97238e+08
1.9577e+08
1.94078e+08
1.92134e+08
1.89906e+08
1.87363e+08
1.84468e+08
1.81184e+08
1.77475e+08
1.73304e+08
1.69134e+08
851408
35329.6
11285.5
6051.01
3701.57
2403.01
1573.28
984.029
556.951
289.608
148.006
80.3393
48.2389
31.7285
22.158
15.9469
11.591
8.42464
6.09773
4.3915
3.15328
2.26908
1.64711
1.21318
0.91198
0.704017
0.561369
0.464234
0.398414
0.353875
0.323689
0.303282
0.28948
0.280173
0.273948
0.269619
0.266284
0.26355
0.261114
0.258693
0.256382
0.254071
0.250685
0.246714
0.242056
0.236621
0.230333
0.223138
0.223117
0.230313
0.236603
0.24204
0.246699
0.250671
0.254057
0.256377
0.258692
0.261113
0.263548
0.266281
0.269614
0.273944
0.280169
0.289474
0.303273
0.323678
0.35386
0.398389
0.464193
0.561297
0.703888
0.911743
1.21276
1.64639
2.26794
3.15158
4.38914
6.09473
8.42098
11.5862
15.9397
22.1459
31.6975
48.1238
79.8008
145.662
281.792
537.705
950.25
1531.81
2363.1
3668.9
6010.57
11079.3
31413.6
384092
2.12348e+07
2.17381e+07
2.24931e+07
2.31925e+07
2.38347e+07
2.44196e+07
2.49493e+07
2.54277e+07
2.58597e+07
2.62521e+07
2.66126e+07
2.69524e+07
2.7282e+07
2.76238e+07
2.79876e+07
2.83697e+07
2.86986e+07
2.88816e+07
2.89816e+07
2.9059e+07
2.91196e+07
2.91645e+07
2.91949e+07
2.92113e+07
2.9214e+07
2.92032e+07
2.91784e+07
2.91392e+07
2.90849e+07
2.90144e+07
2.89253e+07
2.87844e+07
2.8503e+07
2.81301e+07
2.77547e+07
2.74089e+07
2.70758e+07
2.64437e+07
2.61318e+07
2.57759e+07
2.53706e+07
2.49017e+07
2.4384e+07
2.38028e+07
2.31538e+07
2.24336e+07
2.16407e+07
2.07759e+07
1.9843e+07
1.885e+07
1.78094e+07
1.67363e+07
1.56481e+07
1.45608e+07
1.34863e+07
1.2434e+07
1.14123e+07
1.04284e+07
9.48668e+06
8.59613e+06
7.76563e+06
7.00425e+06
6.29477e+06
5.74498e+06
5.79965e+06
6.86906e+06
7.86177e+06
8.78895e+06
9.82448e+06
1.09342e+07
1.20423e+07
1.31273e+07
1.42017e+07
1.52723e+07
1.63268e+07
1.73413e+07
1.82847e+07
1.91457e+07
1.99421e+07
2.0696e+07
2.14456e+07
2.21772e+07
2.28728e+07
2.35226e+07
2.41216e+07
2.46714e+07
2.51716e+07
2.56244e+07
2.60346e+07
2.6409e+07
2.6757e+07
2.70871e+07
2.74167e+07
2.77615e+07
2.81342e+07
2.85056e+07
2.87858e+07
2.89254e+07
2.90135e+07
2.90833e+07
2.9137e+07
2.91757e+07
2.92001e+07
2.92107e+07
2.92077e+07
2.91911e+07
2.91605e+07
2.91153e+07
2.90545e+07
2.89769e+07
2.88768e+07
2.86931e+07
2.83651e+07
2.79832e+07
2.76196e+07
2.72781e+07
2.69486e+07
2.66088e+07
2.62483e+07
2.56296e+07
2.52062e+07
2.49455e+07
2.44157e+07
2.3831e+07
2.31894e+07
2.24912e+07
2.17362e+07
2.12325e+07
879169
39069.3
11465.2
6083.29
3718.63
2418.73
1588.27
996.08
563.949
292.548
148.938
80.5761
48.298
31.747
22.1656
15.9512
11.5937
8.42648
6.09908
4.39248
3.15396
2.26953
1.64738
1.21334
0.912069
0.704066
0.561397
0.46425
0.398423
0.353881
0.323693
0.303284
0.289482
0.280175
0.27395
0.26962
0.266285
0.263551
0.261114
0.258693
0.256383
0.254076
0.25069
0.246719
0.242062
0.236627
0.230339
0.223145
0.223098
0.230296
0.236587
0.242025
0.246684
0.250657
0.254044
0.256372
0.258691
0.261111
0.263546
0.266277
0.269609
0.27394
0.280164
0.289468
0.303265
0.323668
0.353845
0.398367
0.464155
0.561231
0.703771
0.911531
1.21238
1.64576
2.26696
3.15015
4.38722
6.09238
8.4182
11.5827
15.9346
22.1374
31.6758
48.0436
79.4152
143.906
275.708
522.256
922.286
1496.35
2328.16
3640.57
5978.58
10929.6
28567.1
189070
4.4821e+06
4.74235e+06
5.00415e+06
5.25115e+06
5.47877e+06
5.68579e+06
5.87391e+06
6.04577e+06
6.20413e+06
6.35125e+06
6.48911e+06
6.61948e+06
6.74312e+06
6.86078e+06
6.97092e+06
7.07267e+06
7.1582e+06
7.21605e+06
7.25635e+06
7.28862e+06
7.31408e+06
7.3332e+06
7.34634e+06
7.35376e+06
7.35559e+06
7.35188e+06
7.34251e+06
7.32727e+06
7.30584e+06
7.27785e+06
7.24251e+06
7.19442e+06
7.11969e+06
7.02385e+06
6.91677e+06
6.80211e+06
6.67996e+06
6.50952e+06
6.37856e+06
6.23496e+06
6.07711e+06
5.70739e+06
5.51192e+06
5.30335e+06
5.07976e+06
4.8334e+06
4.57433e+06
4.31104e+06
4.05696e+06
3.82968e+06
3.64775e+06
3.52263e+06
3.45223e+06
3.42254e+06
3.40874e+06
3.40747e+06
3.45364e+06
3.51703e+06
3.43559e+06
3.18852e+06
2.8784e+06
2.54175e+06
2.20391e+06
1.91592e+06
2.03811e+06
2.35899e+06
2.76413e+06
3.1334e+06
3.47701e+06
3.84561e+06
4.26591e+06
4.69953e+06
5.07972e+06
5.36234e+06
5.53541e+06
5.60733e+06
5.60033e+06
5.55944e+06
5.50661e+06
5.48293e+06
5.50508e+06
5.57121e+06
5.66225e+06
5.76805e+06
5.88181e+06
6.00838e+06
6.1373e+06
6.26493e+06
6.38695e+06
6.50587e+06
6.6218e+06
6.73468e+06
6.84372e+06
6.94652e+06
7.04377e+06
7.13191e+06
7.2008e+06
7.24368e+06
7.27497e+06
7.29991e+06
7.31897e+06
7.33241e+06
7.34032e+06
7.34267e+06
7.33974e+06
7.33138e+06
7.31736e+06
7.29737e+06
7.27106e+06
7.23794e+06
7.19683e+06
7.13822e+06
7.0524e+06
6.95067e+06
6.84105e+06
6.72398e+06
6.60097e+06
6.4709e+06
6.3332e+06
6.15521e+06
5.99788e+06
5.85469e+06
5.66597e+06
5.45895e+06
5.23335e+06
4.99231e+06
4.73125e+06
4.4569e+06
803121
43892.2
11733.1
6126.93
3738.66
2435.29
1603.41
1008.12
570.987
295.548
149.911
80.8331
48.3653
31.7688
22.1748
15.9562
11.5967
8.42849
6.10051
4.3935
3.15465
2.26997
1.64765
1.2135
0.912159
0.704116
0.561425
0.464266
0.398432
0.353887
0.323697
0.303287
0.289484
0.280176
0.273951
0.269622
0.266286
0.263551
0.261115
0.258693
0.256385
0.254081
0.250695
0.246724
0.242067
0.236633
0.230345
0.223152
0.22307
0.230271
0.236564
0.242003
0.246664
0.250638
0.254026
0.256366
0.25869
0.26111
0.263543
0.266273
0.269603
0.273934
0.280159
0.28946
0.303254
0.323654
0.353825
0.398335
0.464102
0.561139
0.703607
0.911237
1.21187
1.64491
2.26568
3.14834
4.38485
6.08955
8.4149
11.5786
15.9285
22.127
31.6505
47.9557
79.0054
142.011
268.972
504.776
889.892
1453.98
2284.94
3603.65
5933.92
10732.1
25623.5
110248
1.33619e+06
1.44234e+06
1.53403e+06
1.62818e+06
1.72016e+06
1.80746e+06
1.88917e+06
1.96487e+06
2.0353e+06
2.10061e+06
2.16103e+06
2.21695e+06
2.2686e+06
2.31622e+06
2.35962e+06
2.39878e+06
2.43221e+06
2.45766e+06
2.47742e+06
2.49367e+06
2.50682e+06
2.5171e+06
2.52471e+06
2.52977e+06
2.53238e+06
2.53257e+06
2.53026e+06
2.52534e+06
2.51759e+06
2.50694e+06
2.49283e+06
2.47393e+06
2.44701e+06
2.41285e+06
2.37308e+06
2.32798e+06
2.27707e+06
2.21154e+06
2.14819e+06
2.07428e+06
1.98883e+06
1.86146e+06
1.70348e+06
1.6092e+06
1.55956e+06
1.44763e+06
1.34631e+06
1.27472e+06
1.25451e+06
1.29764e+06
1.39424e+06
1.49695e+06
1.54713e+06
1.56838e+06
1.54893e+06
1.48025e+06
1.39482e+06
1.25946e+06
1.0568e+06
865544
708365
575109
463651
385195
489164
619216
786042
1.00951e+06
1.26305e+06
1.51365e+06
1.74599e+06
1.97914e+06
2.21598e+06
2.43495e+06
2.61216e+06
2.7305e+06
2.78183e+06
2.76931e+06
2.71016e+06
2.6743e+06
2.62088e+06
2.5546e+06
2.48672e+06
2.43587e+06
2.41018e+06
2.39662e+06
2.38955e+06
2.38807e+06
2.38917e+06
2.39626e+06
2.40729e+06
2.42174e+06
2.4375e+06
2.45125e+06
2.46611e+06
2.48074e+06
2.49257e+06
2.49789e+06
2.50126e+06
2.5036e+06
2.5048e+06
2.50469e+06
2.5028e+06
2.49872e+06
2.49291e+06
2.48508e+06
2.47487e+06
2.46199e+06
2.44624e+06
2.42739e+06
2.40512e+06
2.37743e+06
2.34242e+06
2.30257e+06
2.25923e+06
2.21193e+06
2.16052e+06
2.10461e+06
2.04398e+06
1.97183e+06
1.90053e+06
1.82885e+06
1.74598e+06
1.65968e+06
1.57463e+06
1.49606e+06
1.40228e+06
1.22922e+06
696047
49958
12145.7
6189.23
3763.45
2453.33
1618.96
1020.27
578.159
298.664
150.95
81.1198
48.4443
31.7952
22.186
15.9621
11.6002
8.43075
6.10206
4.39457
3.15536
2.27042
1.64793
1.21366
0.91225
0.704166
0.561453
0.464282
0.398442
0.353893
0.323701
0.30329
0.289486
0.280178
0.273953
0.269623
0.266287
0.263552
0.261115
0.258694
0.256386
0.254085
0.250699
0.246729
0.242072
0.236638
0.230351
0.223158
0.223033
0.230237
0.236533
0.241974
0.246637
0.250612
0.254001
0.256358
0.258689
0.261108
0.26354
0.266267
0.269594
0.273926
0.28015
0.289448
0.30324
0.323635
0.353797
0.398291
0.464029
0.561015
0.703389
0.910851
1.21121
1.64385
2.26412
3.14621
4.38217
6.08643
8.41131
11.574
15.9215
22.1149
31.622
47.8649
78.6093
140.182
262.306
487.072
856.286
1408.63
2236.95
3559.97
5876.33
10496.7
23099.2
77596.4
601658
638679
663194
695538
730861
766723
801797
834973
866869
897129
925452
951856
976286
998732
1.01913e+06
1.0375e+06
1.05353e+06
1.06676e+06
1.07784e+06
1.08739e+06
1.09562e+06
1.1027e+06
1.10876e+06
1.11389e+06
1.11817e+06
1.12161e+06
1.12413e+06
1.12561e+06
1.1258e+06
1.12471e+06
1.12177e+06
1.11645e+06
1.10763e+06
1.09508e+06
1.07877e+06
1.05827e+06
1.03298e+06
1.00017e+06
962067
912036
847880
776621
703976
637299
576192
507843
466613
472671
526036
600899
662641
685631
662127
554140
466238
386261
313388
249557
195798
152793
119544
94286.4
75166.2
64832.6
103734
156241
215913
288590
386971
522541
684819
862641
1.04701e+06
1.22491e+06
1.37944e+06
1.494e+06
1.55619e+06
1.56565e+06
1.55098e+06
1.53251e+06
1.50668e+06
1.46853e+06
1.4246e+06
1.38803e+06
1.37427e+06
1.3569e+06
1.33426e+06
1.30735e+06
1.28783e+06
1.27262e+06
1.25609e+06
1.23901e+06
1.22142e+06
1.20248e+06
1.18438e+06
1.16722e+06
1.15097e+06
1.13285e+06
1.11635e+06
1.10159e+06
1.0885e+06
1.07675e+06
1.06537e+06
1.05357e+06
1.04222e+06
1.03081e+06
1.01878e+06
1.00568e+06
991360
975653
958498
939681
919432
898941
878194
856190
832012
805511
776620
743558
709197
673893
637274
605903
588081
580545
533308
386462
577560
57114.5
12788.7
6281.78
3795.73
2473.83
1635.37
1032.81
585.636
301.987
152.094
81.4502
48.5399
31.8281
22.2
15.9694
11.6043
8.43336
6.10379
4.39572
3.15611
2.2709
1.64822
1.21383
0.912344
0.704218
0.561482
0.464298
0.398452
0.353899
0.323705
0.303293
0.289488
0.280179
0.273954
0.269625
0.266288
0.263552
0.261116
0.258694
0.256388
0.254089
0.250704
0.246734
0.242077
0.236644
0.230357
0.223165
0.222984
0.230192
0.236491
0.241935
0.246601
0.250578
0.253968
0.256346
0.258687
0.261104
0.263535
0.266259
0.269583
0.273915
0.28014
0.289434
0.30322
0.32361
0.353761
0.398234
0.463933
0.560853
0.70311
0.910366
1.2104
1.6426
2.26234
3.14388
4.37936
6.08324
8.40759
11.5691
15.9137
22.1008
31.5896
47.771
78.2451
138.568
256.344
470.877
824.789
1364.73
2188.43
3511.74
5805.23
10234
21097
61252.6
359398
394400
404262
418912
434577
450765
467136
483054
498777
514080
528705
542637
555787
568080
579453
589888
599322
607686
615213
622116
628533
634617
640464
646155
651728
657140
662242
666823
670632
673338
674604
674009
671046
665425
656975
645389
630288
610449
584629
546928
492634
434322
379516
316607
251717
196837
179376
202721
237698
256464
248708
219135
179216
137600
102129
76688.7
59051.5
46785.4
38132
31875
27194.2
23582.6
20842.1
19920.1
28094.9
45129.2
66921
93543
126906
171594
232421
316561
426719
560895
708503
850245
963600
1.03134e+06
1.04931e+06
1.02404e+06
977324
924104
886273
865278
852933
840350
828923
815107
809727
807079
800571
788901
774646
763798
749019
730163
708395
684825
661790
639351
618293
598809
580120
561660
544516
528166
511925
495228
477996
460073
441277
422097
404157
389215
377244
366614
355169
342613
328926
313457
296549
279555
266612
266266
282114
282851
226655
142737
460917
64743.7
13784.9
6423.89
3839.73
2498.26
1653.37
1046.15
593.684
305.657
153.4
81.8438
48.6585
31.8699
22.2178
15.9785
11.6094
8.43646
6.10577
4.39701
3.15692
2.2714
1.64852
1.21401
0.912442
0.704273
0.561513
0.464315
0.398462
0.353905
0.323709
0.303296
0.28949
0.280181
0.273956
0.269626
0.266289
0.263553
0.261116
0.258694
0.256389
0.254093
0.250708
0.246738
0.242082
0.236649
0.230363
0.223171
0.222921
0.230134
0.236438
0.241886
0.246554
0.250533
0.253926
0.256332
0.258684
0.261101
0.263529
0.266248
0.269568
0.273901
0.280126
0.289414
0.303194
0.323577
0.353713
0.39816
0.463812
0.560649
0.702764
0.909781
1.20945
1.6412
2.26044
3.14151
4.3766
6.08012
8.40378
11.5636
15.9047
22.0837
31.5511
47.6681
77.9025
137.208
251.418
457.317
797.812
1325.74
2142.67
3459.98
5718.32
9946.72
19474.1
50091.9
218346
253107
266265
280324
292854
304682
316711
329374
341353
352743
363593
373969
383891
393354
402332
410793
418694
426010
432813
439174
445179
450936
456507
461930
467180
472128
476526
480069
482615
483110
482045
479031
474047
467219
458745
448746
437232
423745
407094
383867
349237
302001
247384
184944
123668
79937.8
70750.5
80902.3
84736.7
76902
62594.5
48126.3
36779.3
28962.4
23936.5
20770.8
18698.1
17204.7
15985.3
14867.2
13755.1
12660.3
11842.2
11752.6
13361.1
18455.2
25842.1
35850.4
48905.6
66021.5
88569.4
118815
160287
219826
304282
413171
533927
641625
712943
734311
716221
679282
640487
605909
574629
548412
536530
530832
528194
526403
525508
522153
517413
518507
515879
507813
494511
482194
468538
452188
434188
415526
396633
378048
359978
342141
324074
305296
285748
265183
243045
219947
198840
182642
172723
167396
162653
157505
151869
145438
137779
131015
132113
146530
160092
139018
97296.4
68334.6
355340
71762.2
15290.5
6648.2
3902.29
2528.89
1674
1060.94
602.693
309.873
154.948
82.3282
48.8092
31.9239
22.2407
15.9901
11.6159
8.44025
6.10811
4.39848
3.15784
2.27195
1.64885
1.21419
0.912547
0.704332
0.561546
0.464334
0.398472
0.353911
0.323713
0.303299
0.289492
0.280182
0.273957
0.269628
0.26629
0.263554
0.261116
0.258694
0.256391
0.254097
0.250712
0.246743
0.242087
0.236654
0.230368
0.223177
0.222841
0.230061
0.23637
0.241823
0.246495
0.250477
0.253872
0.256313
0.258681
0.261096
0.263521
0.266235
0.26955
0.273883
0.280108
0.28939
0.303162
0.323535
0.353653
0.398067
0.463661
0.560401
0.702354
0.909108
1.20841
1.63972
2.25854
3.13925
4.37402
6.07709
8.39975
11.5574
15.8937
22.0622
31.503
47.5457
77.5471
136.019
247.458
446.573
776.075
1292.82
2100.29
3403.03
5610.26
9624.48
18023.7
40978.1
128702
150373
163543
176618
188289
199085
209892
221353
231976
241918
251351
260318
268895
277135
285050
292622
299809
306569
312888
318768
324219
329249
333862
338034
341690
344677
346762
347693
347719
344937
341004
335428
328444
320359
311439
301814
291443
279994
267003
253120
238947
209979
156527
102617
57680.4
31469.6
25797.8
25638.6
22754
18790.6
15567.6
13571.3
12555.5
12130.3
11975.2
11870.3
11684.8
11331.3
10794.1
10073.1
9193.31
8353.94
7852.96
7751.53
8286.66
10083.9
12957.2
16932.4
22307.6
29497.1
39064.7
51771.5
68669.8
91720.4
124606
174016
246165
337232
430167
497368
524881
517671
492345
461998
431712
405992
387276
373909
362485
352299
349224
348163
346933
347505
348019
346731
341926
339415
335504
328313
318050
305564
292309
280081
266961
252882
237781
221457
203742
184291
162345
138093
114261
94651.3
83146.3
79157.9
77590.4
76153.9
74527.5
72731.6
70587.7
70036.4
76901
87962.2
85458.6
65666.2
48787.6
39973.8
265884
76808.4
17460.2
7009.29
3995.06
2569.26
1698.85
1078.05
613.211
314.915
156.851
82.9418
49.0045
31.9944
22.2708
16.0051
11.624
8.44499
6.11096
4.40022
3.15889
2.27258
1.64921
1.2144
0.912664
0.704397
0.561582
0.464354
0.398484
0.353918
0.323717
0.303302
0.289494
0.280184
0.273959
0.269629
0.266291
0.263554
0.261117
0.258695
0.256392
0.254101
0.250716
0.246747
0.242091
0.236658
0.230373
0.223182
0.222744
0.229972
0.236288
0.241747
0.246423
0.250409
0.253806
0.25629
0.258677
0.261089
0.263511
0.266219
0.269527
0.273862
0.280086
0.28936
0.303122
0.323484
0.35358
0.397955
0.463481
0.560112
0.701888
0.908375
1.20733
1.63827
2.25677
3.1372
4.37162
6.074
8.39517
11.5497
15.8798
22.0344
31.4406
47.3906
77.1317
134.836
244.045
437.873
758.424
1264.35
2058.55
3336.04
5472.26
9245.82
16596.3
33565
79218
90960.7
99978.7
109340
118300
126945
135415
143721
151573
159017
166264
173165
179741
186044
192106
197941
203537
208865
213885
218553
222817
226616
229897
232596
234630
235892
236256
235629
234205
231163
227438
222861
217545
211547
204833
197232
188408
177807
165218
152562
141515
120493
78356.2
43777.1
21671.8
11687.3
9320.78
8639.83
8072.21
7838.17
7927.76
8217.45
8570.33
8876.31
9037.66
8990.74
8722.75
8183.98
7456.02
6582.31
5684.92
5022.02
4630.88
4486.97
4658.84
5428.59
6860.54
8733.41
11264.6
14751.3
19277.4
25208.3
33042.6
43519.2
57777.9
77845.1
107370
152728
216100
287649
347190
378661
381234
364956
340670
316542
296663
281881
269840
259701
252362
246718
241498
236102
233545
232871
231434
230588
229024
226553
222274
215975
208790
202578
195040
186125
175992
164669
151814
137014
119620
99221.3
76796
56331.3
43826.5
39068.5
38051.5
37687.8
37291
36960.3
37274
39595.4
45490.2
49087.8
43662
34802.8
29063.2
26843.2
194101
78642.1
20359.7
7593.49
4138.49
2625.14
1730.25
1098.77
625.996
321.174
159.268
83.7387
49.2618
32.0877
22.3103
16.0246
11.6345
8.451
6.11451
4.40234
3.16014
2.27331
1.64963
1.21464
0.912797
0.704471
0.561624
0.464377
0.398497
0.353926
0.323722
0.303306
0.289497
0.280185
0.27396
0.26963
0.266292
0.263555
0.261117
0.258695
0.256393
0.254104
0.25072
0.24675
0.242095
0.236663
0.230378
0.223187
0.22263
0.229867
0.236191
0.241656
0.246338
0.250328
0.253729
0.256264
0.258672
0.261082
0.2635
0.2662
0.269499
0.273836
0.28006
0.289324
0.303074
0.323424
0.353493
0.397824
0.463276
0.559789
0.701387
0.90762
1.20628
1.63693
2.2552
3.13534
4.36925
6.07056
8.38955
11.5399
15.8616
21.9977
31.3586
47.1878
76.6062
133.472
240.596
429.847
742.356
1236.55
2012.2
3251.78
5292.97
8786.11
15113.8
27594.7
52729.6
60980.7
67797.2
73884.7
79815.5
85493.3
90900.8
95965.6
100849
105556
110564
115406
120003
124368
128518
132469
136228
139794
143149
146268
149106
151604
153705
155356
156511
157132
157196
156702
155688
154079
152002
149420
146292
142517
137899
132119
124720
115150
103342
89938.3
72127.8
49589.3
26991
13584.1
7379.36
5233.44
4995.58
5163.99
5460.83
5833.35
6230.44
6595.94
6855.59
6957.41
6829.38
6449.81
5891.75
5095.63
4278.08
3564.39
3043.99
2696.24
2485.22
2393.49
2417.68
2734.06
3439.11
4491.54
5781.6
7489.76
9829.11
13050.2
17119.1
22387.7
29379.9
38877.8
52031.8
70917.9
98950.2
140394
192006
241422
273299
282499
273431
255904
237419
221740
208909
198451
190371
184264
179164
173941
169619
166077
162622
158795
154716
152170
149831
146790
143198
139550
135136
129837
123795
117120
109318
100018
88698.1
74602.8
56876.9
38658
26997.2
21970
20653.6
20250.6
19931.4
19584.3
19961
22457.5
26168.7
27254.3
24690.3
21524.1
19604.3
19664.5
139127
76660.9
23834.1
8521.85
4368.95
2706.58
1771.85
1124.91
642.114
329.203
162.427
84.7957
49.6055
32.212
22.3628
16.0502
11.6483
8.45874
6.11901
4.40498
3.16168
2.27419
1.65013
1.21492
0.912954
0.704557
0.561672
0.464404
0.398512
0.353935
0.323728
0.303309
0.289499
0.280187
0.273961
0.269632
0.266293
0.263555
0.261117
0.258695
0.256394
0.254108
0.250723
0.246754
0.242099
0.236667
0.230382
0.223192
0.2225
0.229748
0.236081
0.241554
0.246241
0.250236
0.25364
0.256233
0.258667
0.261074
0.263487
0.266177
0.269468
0.273806
0.280031
0.289282
0.30302
0.323355
0.353396
0.397679
0.463051
0.559448
0.700877
0.906891
1.20531
1.63576
2.25379
3.13355
4.36665
6.06637
8.38234
11.527
15.8375
21.9493
31.2501
46.9203
75.9196
131.751
236.532
421.003
724.926
1204.83
1954.96
3141.99
5060.04
8224.53
13538
22561.8
36388.9
42376
47325.1
51707.2
56067.7
60264.5
64281.2
68091.9
71799.2
75372.6
78821
82091.1
85169.7
88057.1
90758.5
93282.9
95640.3
97838.9
99882.3
101771
103498
105043
106386
107509
108388
109001
109321
109323
108980
108292
107186
105611
103449
100522
96569.9
91185.5
84025.4
74734.5
63563.5
49761.9
31435.7
13298.9
7251.24
4580.89
3721.66
3633.26
3919.95
4205.53
4517.96
4812.01
5052.98
5194.71
5156.3
4920.15
4456
3825.86
3194.31
2619.7
2144.83
1799.38
1557.97
1393.38
1289.52
1239.86
1241.03
1355.23
1644.34
2178.47
2923.4
3819.69
4988.19
6616.7
8872.95
11909.4
15716.5
20661.8
27275.8
36319.3
48821.7
66608.5
92877.4
128451
166628
195794
208419
205804
194456
180866
168176
157367
148606
141827
136475
131538
127274
123717
120579
117120
113543
110307
107176
103883
100366
96608
92697.8
88574.5
84429.7
80443.9
75966.5
70768.4
64505.9
56307.1
44378
29912.7
19459.4
14615.5
13082.6
12523.6
12130.8
11682.3
11722.6
13445.5
15834.2
16683.2
16024.6
15027.7
14488.2
15630.6
99368.8
71369.3
27430
9928.04
4748.97
2831.94
1829.76
1159.21
663.082
339.794
166.657
86.2251
50.0706
32.3794
22.4328
16.0841
11.6663
8.46881
6.12479
4.40832
3.1636
2.27528
1.65075
1.21526
0.913142
0.704662
0.56173
0.464436
0.39853
0.353945
0.323734
0.303313
0.289501
0.280189
0.273962
0.269633
0.266294
0.263556
0.261118
0.258695
0.256395
0.254111
0.250726
0.246757
0.242102
0.23667
0.230386
0.223197
0.22236
0.229619
0.235962
0.241442
0.246136
0.250136
0.253544
0.256199
0.258661
0.261065
0.263472
0.266153
0.269433
0.273774
0.279998
0.289237
0.30296
0.32328
0.35329
0.397525
0.462819
0.559107
0.700389
0.906227
1.20447
1.63472
2.25247
3.13162
4.36353
6.06101
8.37291
11.5101
15.8058
21.8853
31.1068
46.5674
75.0164
129.507
231.351
410.029
703.453
1164.88
1880.77
2998.36
4761.66
7547.98
11865.2
18216.7
25677.4
30158.5
33659.9
36838.6
40010.9
43102.7
46107.3
49015.6
51850
54578.1
57179.8
59645.6
61964.3
64130.8
66144.9
68010.6
69734.6
71324.1
72785.3
74123.7
75338.9
76424.2
77367.4
78160.2
78788.6
79236.2
79478.5
79485.8
79229.5
78700.1
77778.7
76394.7
74386.9
71512.9
67530.6
61956
54818.8
45978.2
35217
22613.4
10017.9
3771.05
2995.91
2811.93
2880.63
3050.37
3286.32
3481.33
3670.67
3787.09
3797.08
3655.18
3319.21
2841.66
2370.65
1946.71
1579.06
1283.52
1066.62
911.15
799.231
721.587
671.928
646.443
643.61
680.394
787.029
1008.5
1388.74
1910.53
2534.03
3344.99
4488.06
6112.04
8401.76
11277.1
14907
19652
25977.8
34455.1
46024.5
62487.5
86048.7
113873
138497
152465
154648
148528
138943
129045
120200
112923
107133
102185
97933.8
94370.5
91383.3
88371.4
85358.2
82531.3
79856.9
77207.8
74475.8
71529.6
68549.9
65528.4
62460.6
59344.4
56018.7
52340.7
48144.4
42994
35754.5
25347.7
15928
11154.9
9437.37
8754.32
8311.3
7859.63
7765.9
8889.67
10575.9
11511.9
11640.8
11432.2
11541.5
13691.5
71575.8
64255.5
30514.8
11891.4
5376.57
3035.54
1915.12
1206.07
691.153
354.114
172.452
88.1952
50.7088
32.6064
22.5267
16.1292
11.69
8.482
6.13229
4.41262
3.16605
2.27666
1.65151
1.21569
0.913376
0.70479
0.561801
0.464475
0.398552
0.353957
0.323741
0.303317
0.289504
0.28019
0.273964
0.269634
0.266294
0.263556
0.261118
0.258695
0.256396
0.254113
0.250729
0.24676
0.242105
0.236674
0.23039
0.223201
0.222217
0.229488
0.23584
0.241328
0.246029
0.250034
0.253445
0.256165
0.258655
0.261055
0.263457
0.266127
0.269397
0.27374
0.279964
0.28919
0.302899
0.323203
0.353184
0.397371
0.462593
0.558786
0.699949
0.905647
1.20373
1.63376
2.25105
3.12931
4.35954
6.05399
8.36048
11.4877
15.7639
21.8008
30.918
46.1038
73.8325
126.572
224.603
395.827
675.702
1112.95
1784.06
2813.04
4388.25
6753.21
10114.6
14411.6
18300.7
21712.9
24225.2
26581.8
28904.1
31193.8
33442.2
35643.4
37789.4
39856.7
41828.6
43700.2
45461
47104.4
48627.9
50032.7
51322.7
52503.2
53580.3
54560.4
55446.5
56236.5
56919.3
57488.7
57934.1
58243.2
58389.5
58333
58043.6
57486.5
56504.5
54985.4
52774.9
49530.2
45210.4
39680.3
32640
24286
15083.6
7193.5
2979.93
2181.97
2210.18
2300.84
2416.56
2546.58
2655.16
2728.87
2769.21
2673.76
2468.59
2111.78
1760.45
1449.84
1183.09
956.627
776.907
644.228
545.458
472.288
419.423
382.766
359.25
346.853
344.737
353.13
391.687
473.541
631.565
895.928
1260.91
1697.24
2264.88
3082.12
4275.11
5969.2
8189.62
10913.5
14369.1
18834.2
24647.3
32277.1
42754.2
57819.7
77118.7
96410.2
109994
115146
113173
107117
99799.2
92840.8
86886.2
81833.5
77527.5
73907.9
70921.6
68173.1
65553.4
63089.6
60793.9
58613.1
56455.7
54183.7
51913.4
49668.7
47430.8
45174.4
42842.2
40355.2
37625.8
34402.3
29938.6
22833.3
14462.8
9511.08
7533.4
6724.63
6239.31
5816.19
5708
6515.39
7830.7
8768.62
9147.22
9230.76
9730.23
13081.2
42930.6
56192.5
32560.9
14338.7
6380.43
3379.74
2049.57
1273.35
729.888
373.945
180.574
90.9671
51.5985
32.9177
22.6536
16.1893
11.7215
8.49936
6.1421
4.41819
3.1692
2.27841
1.65248
1.21622
0.913669
0.704952
0.561889
0.464523
0.398578
0.353972
0.323749
0.303323
0.289507
0.280192
0.273965
0.269635
0.266295
0.263556
0.261118
0.258695
0.256397
0.254116
0.250732
0.246763
0.242108
0.236677
0.230393
0.223204
0.222083
0.229363
0.235724
0.24122
0.245926
0.249936
0.25335
0.256132
0.258649
0.261046
0.263443
0.266102
0.269363
0.273708
0.279931
0.289144
0.302839
0.323129
0.353082
0.397227
0.462387
0.558501
0.699565
0.905138
1.20304
1.63274
2.24937
3.12637
4.35432
6.04476
8.34407
11.4581
15.7085
21.6895
30.6704
45.4988
72.2928
122.761
215.849
377.411
639.732
1045.75
1659.81
2579.4
3934.77
5849.41
8323.48
11060.4
12998.9
15540
17441.4
19259.9
21016
22743.7
24438.4
26099.6
27718.4
29281.6
30778.2
32201.6
33542.6
34795.1
35956
37024.7
38002.9
38894
39702.8
40435.3
41095.6
41682.6
42182.8
42585.5
42877.9
43049
43070.5
42881.6
42430.5
41672
40424.2
38498.4
35892.5
32453.8
27913.2
22313.7
15767
9198.5
4353.07
2167.56
1721.25
1751.97
1816.85
1885.47
1952.29
2012.64
1994.72
1934.86
1845.94
1579.46
1314.8
1084.38
889.949
726.405
588.916
480.124
398.341
335.822
288.914
254.525
229.95
213.113
202.458
196.925
196.062
199.866
212.92
242.2
299.855
408.547
590.187
844.915
1152.48
1554.89
2149.3
3029.04
4298.82
6014.49
8068.41
10594.1
13757.9
17752.9
22851.4
29583.1
38888.8
51636.5
65879.8
77890.8
84475.4
85421.5
82388.4
77492.9
72302
67487.3
63243.7
59604.3
56568.8
53923.1
51524.8
49318.5
47297.6
45435.9
43669
41884.1
40124.1
38417.8
36755.1
35112
33471.7
31800.1
30060.4
28125.8
25552.8
21173.3
14296.3
8971.68
6577.45
5598.35
5054.75
4653.1
4562.52
5206.24
6298.02
7163.2
7573.79
7722.13
8209.68
10509
19857.9
48520.4
33724.6
17055
7884.83
3969.01
2276.45
1376.63
785.533
402.186
192.257
94.9647
52.8643
33.3503
22.8263
16.2701
11.7635
8.52233
6.15498
4.42548
3.17328
2.28068
1.65373
1.2169
0.914044
0.705157
0.562002
0.464584
0.398612
0.35399
0.32376
0.303329
0.28951
0.280194
0.273967
0.269636
0.266296
0.263557
0.261118
0.258696
0.256398
0.254118
0.250734
0.246766
0.242111
0.23668
0.230396
0.223208
0.221967
0.229256
0.235624
0.241125
0.245837
0.24985
0.253268
0.256103
0.258643
0.261037
0.263429
0.26608
0.269332
0.273679
0.279901
0.289103
0.302785
0.323062
0.352991
0.397099
0.462206
0.558253
0.699223
0.904655
1.20231
1.63153
2.24724
3.12253
4.34746
6.03258
8.32242
11.4191
15.6356
21.5434
30.3475
44.7156
70.3124
117.877
204.644
353.856
593.801
960.378
1503.96
2293.55
3403.69
4861.45
6548.07
8126.31
9008.62
10784.7
12305.3
13776.3
15182.5
16546
17866
19146.3
20385.2
21578.6
22721.1
23807.8
24832.7
25791
26679.9
27498.1
28245.5
28923.2
29533.6
30080.8
30569.2
30998.2
31350.4
31605.7
31738.8
31732
31564.7
31157.9
30407.9
29276.5
27677
25525.5
22586
18842.1
14271
9303.9
5124.56
2455.75
1481.87
1348.19
1369.71
1403.29
1435.57
1460.72
1468.48
1450.85
1336.16
1180.12
986.342
815.784
672.529
553.462
454.056
370.947
304.873
253.969
214.41
184.781
163.286
147.813
136.855
129.62
125.295
123.341
123.495
125.676
129.941
140.758
161.3
200.684
274.46
398.846
576.818
795.938
1084.69
1521.12
2176.68
3135.45
4455.07
5999.39
7846.13
10088.6
12839.3
16249.4
20551.7
26295.3
34328
44247.8
53849.8
60660.4
63450.9
62838.4
60101.1
56501.3
52817.5
49404
46424
43840
41561.7
39520.1
37684.4
36030.7
34515.4
33056.8
31650.8
30313.4
29043.3
27825.1
26655.4
25526.2
24431.4
23323.7
21974.8
19616.2
14849.5
9338.64
6300.22
5049.46
4407.24
4000.94
3917.66
4453.81
5379.9
6137.26
6499.57
6631.91
6999.87
8502.89
12737.1
38553.7
33798.5
19758.7
9929.95
4952.57
2680.34
1549.76
870.786
444.084
209.641
100.919
54.7158
33.9631
23.064
16.3792
11.8195
8.55284
6.17201
4.43504
3.17863
2.28363
1.65534
1.21779
0.914527
0.705422
0.562146
0.464663
0.398654
0.354013
0.323773
0.303336
0.289514
0.280197
0.273968
0.269637
0.266296
0.263557
0.261119
0.258696
0.256399
0.25412
0.250736
0.246768
0.242113
0.236682
0.230399
0.223211
0.221877
0.229172
0.235546
0.241051
0.245766
0.249782
0.253202
0.25608
0.258639
0.261031
0.263419
0.266061
0.269306
0.273655
0.279877
0.289069