/*--------------------------------*- C++ -*----------------------------------*\
| =========                 |                                                 |
| \\      /  F ield         | OpenFOAM: The Open Source CFD Toolbox           |
|  \\    /   O peration     | Version:  2112                                  |
|   \\  /    A nd           | Website:  www.openfoam.com                      |
|    \\/     M anipulation  |                                                 |
\*---------------------------------------------------------------------------*/
FoamFile
{
    version     2.0;
    format      ascii;
    arch        "LSB;label=32;scalar=64";
    class       volScalarField;
    location    "1226";
    object      p;
}
// * * * * * * * * * * * * * * * * * * * * * * * * * * * * * * * * * * * * * //

dimensions      [0 2 -2 0 0 0 0];

internalField   nonuniform List<scalar> 
14336
(
0.03087
0.0449373
0.0933351
0.131112
0.175391
0.2236
0.28067
0.350618
0.439049
0.550902
0.68965
0.858422
1.06644
1.31542
1.61885
1.99901
2.47088
3.05295
3.76844
4.65037
5.73763
7.07707
8.72486
10.7495
13.2337
16.2744
19.9852
24.4935
29.9319
36.4368
44.1652
53.2828
63.9371
76.2663
90.4266
106.608
125.036
145.919
169.263
194.475
219.808
241.652
253.373
244.999
210.821
160.368
109.093
77.6572
65.1658
83.4316
94.6889
100.275
103.692
105.362
105.934
105.756
105.136
104.313
103.491
102.855
102.566
102.77
103.594
105.153
107.544
110.856
115.176
120.601
127.256
135.311
144.997
156.63
170.624
187.482
207.751
231.994
260.776
294.613
333.927
379.037
430.115
487.183
550.111
618.662
692.396
770.64
852.492
936.622
1021.33
1104.42
1182.71
1251.99
1306.34
1336.64
1333.34
1286.02
1179.19
998.587
730.959
368.841
-84.8861
-614.725
-1193.67
-1788.32
-2366.51
-2903.52
-3384.82
-3805.03
-4165.31
-4469.77
-4726.1
-4925.77
-5166.26
-5341.5
-5585.06
-5861.95
-6143.03
-6434.54
-6728.23
-6997.48
-7210.76
-7339.93
-7363.11
-7269.53
-7063.37
-6762.55
-6394.47
-5987.79
-5565.76
-5147.53
-4746.93
-4370.64
-4021.23
-3699.12
-3403.85
-3133.99
-2887.08
-2660.57
-2452.24
-2259.94
-2081.73
-1915.74
-1760.4
-1614.54
-1477.24
-1347.73
-1225.38
-1109.89
-1000.99
-898.516
-802.278
-711.977
-627.224
-547.569
-472.437
-401.153
-333.001
-267.319
-203.704
-142.402
-85.037
-35.3137
2.34775
27.4183
44.3517
56.8948
66.3496
73.6737
79.3658
81.9628
78.7608
69.7183
59.1326
52.7723
86.8607
65.0048
77.6946
109.198
160.422
210.803
244.95
253.334
241.631
219.8
194.473
169.263
145.921
125.038
106.609
90.4276
76.2672
63.938
53.2837
44.1662
36.4378
29.9329
24.4946
19.9863
16.2754
13.2345
10.7501
8.72519
7.07703
5.73717
4.64955
3.76751
3.0523
2.47037
1.99729
1.61444
1.30893
1.06154
0.859705
0.69884
0.56538
0.453388
0.359974
0.283381
0.221233
0.17092
0.126984
0.0906501
0.0438998
0.0310952
0.0306676
0.0458739
0.0957569
0.134834
0.17942
0.225729
0.278219
0.342179
0.426123
0.537862
0.681387
0.857292
1.07088
1.3213
1.62287
2.00063
2.47145
3.05369
3.76949
4.6514
5.7384
7.07754
8.72507
10.7495
13.2335
16.2741
19.985
24.4933
29.9317
36.4367
44.1653
53.283
63.9376
76.2671
90.4278
106.609
125.039
145.923
169.268
194.482
219.817
241.663
253.381
244.992
210.783
160.29
108.97
77.5676
65.1695
83.421
94.6835
100.273
103.691
105.362
105.933
105.757
105.136
104.313
103.491
102.855
102.566
102.77
103.594
105.153
107.544
110.856
115.176
120.601
127.256
135.311
144.997
156.63
170.624
187.482
207.752
231.995
260.777
294.614
333.93
379.04
430.119
487.188
550.118
618.671
692.407
770.654
852.509
936.643
1021.36
1104.45
1182.74
1252.01
1306.36
1336.65
1333.32
1285.95
1179.06
998.353
730.589
368.304
-85.6047
-615.611
-1194.68
-1789.37
-2367.51
-2904.37
-3385.46
-3805.42
-4165.43
-4469.62
-4725.67
-4925.04
-5164.64
-5340.28
-5583.96
-5860.92
-6141.99
-6433.5
-6727.3
-6996.77
-7210.3
-7339.72
-7363.12
-7269.73
-7063.71
-6762.95
-6394.89
-5988.19
-5566.12
-5147.83
-4747.17
-4370.84
-4021.38
-3699.24
-3403.95
-3134.06
-2887.14
-2660.62
-2452.27
-2259.97
-2081.75
-1915.75
-1760.41
-1614.55
-1477.25
-1347.73
-1225.39
-1109.89
-1001
-898.517
-802.279
-711.977
-627.224
-547.568
-472.435
-401.151
-332.998
-267.316
-203.7
-142.397
-85.0325
-35.3094
2.35137
27.4212
44.3541
56.8969
66.3514
73.6754
79.367
81.9627
78.7584
69.7139
59.1284
52.7821
86.8622
64.9615
77.6385
109.19
160.389
210.775
244.936
253.335
241.64
219.81
194.482
169.27
145.925
125.041
106.611
90.4291
76.2682
63.9387
53.2841
44.1665
36.4381
29.9332
24.4949
19.9866
16.2756
13.2347
10.7501
8.72497
7.07655
5.73639
4.64852
3.76645
3.05155
2.46979
1.99566
1.61041
1.30304
1.05709
0.860836
0.707112
0.578432
0.466326
0.368422
0.285834
0.219102
0.166887
0.123258
0.088226
0.0429623
0.0312979
0.0305173
0.0465806
0.0975782
0.137628
0.182437
0.22731
0.276356
0.335825
0.416418
0.528094
0.675223
0.856492
1.07426
1.32577
1.62595
2.00194
2.47202
3.05444
3.77054
4.6525
5.73939
7.07839
8.72581
10.7502
13.2341
16.2747
19.9855
24.4938
29.9322
36.4373
44.1659
53.2837
63.9383
76.2679
90.4286
106.61
125.04
145.923
169.267
194.479
219.809
241.644
253.347
244.945
210.746
160.285
108.929
77.5032
65.1774
83.4188
94.6823
100.272
103.691
105.362
105.933
105.757
105.136
104.313
103.492
102.855
102.566
102.769
103.594
105.153
107.544
110.856
115.176
120.601
127.256
135.311
144.997
156.63
170.624
187.482
207.752
231.995
260.777
294.615
333.93
379.041
430.12
487.19
550.12
618.674
692.41
770.658
852.513
936.648
1021.36
1104.46
1182.75
1252.02
1306.36
1336.65
1333.31
1285.94
1179.03
998.304
730.522
368.235
-85.6283
-615.503
-1194.31
-1788.59
-2366.17
-2902.34
-3382.61
-3801.6
-4160.44
-4463.17
-4717.4
-4915.14
-5154.3
-5332.61
-5577.55
-5855.45
-6137.47
-6429.82
-6724.31
-6994.43
-7208.56
-7338.5
-7362.31
-7269.25
-7063.46
-6762.86
-6394.9
-5988.25
-5566.2
-5147.91
-4747.24
-4370.9
-4021.43
-3699.28
-3403.98
-3134.09
-2887.16
-2660.63
-2452.28
-2259.97
-2081.76
-1915.76
-1760.42
-1614.55
-1477.25
-1347.73
-1225.39
-1109.89
-1001
-898.518
-802.28
-711.977
-627.224
-547.568
-472.435
-401.15
-332.998
-267.315
-203.699
-142.396
-85.0313
-35.3082
2.35234
27.4219
44.3547
56.8974
66.3519
73.6758
79.3673
81.9626
78.7578
69.7131
59.1279
52.7846
86.8564
64.9159
77.5752
109.177
160.369
210.811
244.994
253.382
241.668
219.825
194.488
169.272
145.926
125.04
106.61
90.4278
76.267
63.9375
53.283
44.1655
36.4372
29.9324
24.4941
19.9859
16.2749
13.234
10.7494
8.72418
7.07566
5.73538
4.6474
3.76539
3.0508
2.46922
1.99434
1.60733
1.29857
1.05371
0.861636
0.71328
0.588209
0.476039
0.374781
0.287698
0.217519
0.163868
0.120462
0.0864031
0.042255
0.0314482
0.0304079
0.0471001
0.0989146
0.139675
0.184645
0.228462
0.274981
0.331158
0.409302
0.520941
0.670719
0.855921
1.07675
1.32905
1.62822
2.00291
2.47244
3.055
3.77132
4.65332
5.74014
7.07906
8.7264
10.7507
13.2346
16.2752
19.986
24.4943
29.9328
36.4379
44.1666
53.2844
63.9392
76.2688
90.4296
106.611
125.04
145.923
169.265
194.474
219.797
241.621
253.308
244.895
210.705
160.274
108.865
77.4511
65.1905
83.4187
94.6821
100.272
103.691
105.362
105.933
105.757
105.136
104.313
103.492
102.855
102.566
102.77
103.594
105.153
107.544
110.856
115.176
120.601
127.256
135.311
144.997
156.63
170.624
187.482
207.752
231.995
260.777
294.615
333.93
379.041
430.12
487.19
550.12
618.674
692.41
770.658
852.514
936.648
1021.36
1104.46
1182.75
1252.02
1306.36
1336.64
1333.31
1285.93
1179.03
998.324
730.61
368.5
-84.9894
-614.182
-1191.89
-1784.57
-2359.99
-2893.33
-3370.01
-3784.49
-4137.72
-4433.6
-4680
-4873.47
-5105.17
-5293.75
-5544.23
-5827.89
-6115.73
-6412.74
-6710.96
-6984.18
-7200.95
-7333.08
-7358.64
-7266.89
-7062.02
-6762.02
-6394.43
-5988
-5566.07
-5147.84
-4747.22
-4370.89
-4021.43
-3699.28
-3403.98
-3134.09
-2887.16
-2660.64
-2452.28
-2259.98
-2081.76
-1915.76
-1760.42
-1614.55
-1477.25
-1347.73
-1225.39
-1109.89
-1001
-898.518
-802.28
-711.977
-627.224
-547.568
-472.435
-401.15
-332.998
-267.315
-203.699
-142.396
-85.0314
-35.3083
2.3523
27.4219
44.3547
56.8974
66.3518
73.6758
79.3673
81.9627
78.758
69.7135
59.1285
52.7855
86.8363
64.8499
77.5725
109.204
160.376
210.86
245.058
253.431
241.697
219.839
194.494
169.274
145.925
125.039
106.608
90.4261
76.2653
63.936
53.2817
44.1644
36.4362
29.9315
24.4933
19.9852
16.2743
13.2334
10.7488
8.72353
7.07495
5.7346
4.64656
3.7646
3.05023
2.46879
1.99337
1.60506
1.29529
1.05121
0.862205
0.717783
0.595362
0.483156
0.379448
0.289075
0.216368
0.16166
0.118415
0.0850667
0.0417354
0.0315576
0.0303243
0.0474927
0.0999265
0.141227
0.186321
0.229341
0.273947
0.32763
0.403912
0.515515
0.667295
0.855476
1.07863
1.33153
1.62993
2.00364
2.47276
3.05541
3.7719
4.65394
5.7407
7.07954
8.72683
10.7511
13.235
16.2756
19.9865
24.4948
29.9334
36.4385
44.1673
53.2854
63.9402
76.27
90.4308
106.612
125.041
145.923
169.264
194.468
219.783
241.594
253.262
244.834
210.651
160.247
108.785
77.4774
65.2107
83.4187
94.6816
100.272
103.691
105.362
105.934
105.757
105.136
104.313
103.492
102.855
102.566
102.77
103.594
105.153
107.544
110.856
115.176
120.601
127.256
135.311
144.997
156.63
170.624
187.482
207.752
231.995
260.778
294.615
333.931
379.041
430.121
487.191
550.121
618.675
692.412
770.659
852.515
936.649
1021.36
1104.46
1182.75
1252.02
1306.36
1336.64
1333.31
1285.93
1179.05
998.431
730.95
369.37
-83.0734
-610.437
-1185.26
-1773.79
-2343.69
-2870.17
-3338.74
-3744.04
-4087.25
-4372.44
-4608.22
-4798.26
-5014.35
-5219.99
-5476.14
-5765.93
-6062.31
-6367.69
-6673.95
-6954.78
-7178.57
-7316.9
-7347.6
-7259.8
-7057.73
-6759.55
-6393.05
-5987.24
-5565.65
-5147.61
-4747.08
-4370.81
-4021.39
-3699.26
-3403.98
-3134.09
-2887.16
-2660.64
-2452.29
-2259.98
-2081.76
-1915.76
-1760.42
-1614.55
-1477.25
-1347.74
-1225.39
-1109.89
-1001
-898.518
-802.28
-711.977
-627.224
-547.568
-472.435
-401.15
-332.998
-267.315
-203.699
-142.396
-85.0313
-35.3082
2.35231
27.4219
44.3547
56.8974
66.3518
73.6758
79.3673
81.9627
78.7582
69.7139
59.1292
52.7878
86.7866
64.7181
77.6501
109.255
160.4
210.918
245.128
253.485
241.729
219.856
194.502
169.276
145.925
125.037
106.606
90.4243
76.2636
63.9344
53.2803
44.1632
36.4352
29.9307
24.4926
19.9845
16.2737
13.2329
10.7483
8.72304
7.07443
5.73401
4.64593
3.764
3.04981
2.46847
1.99264
1.60335
1.2928
1.04934
0.86265
0.721206
0.600788
0.488547
0.382978
0.290109
0.215489
0.159984
0.116862
0.0840547
0.0413427
0.0316411
0.03026
0.047793
0.100702
0.142417
0.187607
0.230018
0.273159
0.32493
0.399783
0.511356
0.664666
0.855129
1.08006
1.33343
1.63124
2.0042
2.473
3.05573
3.77235
4.65442
5.74114
7.07994
8.7272
10.7515
13.2354
16.276
19.9869
24.4954
29.934
36.4394
44.1684
53.2866
63.9417
76.2716
90.4326
106.614
125.042
145.924
169.261
194.46
219.765
241.557
253.2
244.75
210.573
160.209
108.711
77.6198
65.2456
83.4212
94.681
100.272
103.691
105.362
105.934
105.757
105.136
104.314
103.492
102.855
102.566
102.77
103.594
105.153
107.544
110.856
115.176
120.601
127.256
135.311
144.997
156.63
170.624
187.482
207.752
231.996
260.778
294.616
333.932
379.042
430.122
487.193
550.124
618.678
692.415
770.663
852.519
936.654
1021.37
1104.46
1182.75
1252.02
1306.36
1336.64
1333.3
1285.94
1179.13
998.732
731.794
371.363
-78.9417
-602.761
-1172.32
-1753.75
-2314.84
-2831.08
-3288.25
-3681.09
-4010.72
-4280.96
-4500.1
-4679.72
-4883.89
-5108.65
-5372.09
-5666.9
-5972.1
-6286.69
-6602.71
-6894.63
-7130.44
-7280.57
-7321.91
-7242.86
-7047.29
-6753.49
-6389.68
-5985.39
-5564.61
-5147.02
-4746.74
-4370.62
-4021.28
-3699.19
-3403.93
-3134.06
-2887.15
-2660.63
-2452.28
-2259.97
-2081.76
-1915.76
-1760.42
-1614.55
-1477.25
-1347.74
-1225.39
-1109.89
-1001
-898.518
-802.279
-711.977
-627.223
-547.568
-472.435
-401.15
-332.997
-267.314
-203.699
-142.396
-85.031
-35.3079
2.35252
27.4221
44.3548
56.8975
66.3519
73.6758
79.3673
81.9627
78.7583
69.7144
59.1301
52.7919
86.6832
64.403
77.8054
109.321
160.442
210.999
245.219
253.553
241.771
219.877
194.511
169.279
145.925
125.036
106.604
90.4221
76.2615
63.9325
53.2787
44.1618
36.434
29.9297
24.4918
19.9839
16.2732
13.2324
10.7479
8.72263
7.074
5.73355
4.64543
3.76354
3.04948
2.46822
1.99208
1.60203
1.2909
1.0479
0.862996
0.723837
0.604951
0.492679
0.385679
0.290896
0.214812
0.158697
0.115672
0.0832792
0.0410423
0.0317055
0.0302107
0.0480229
0.101295
0.143328
0.188592
0.230536
0.272556
0.322864
0.396624
0.508173
0.662656
0.854864
1.08116
1.33489
1.63225
2.00463
2.47319
3.05599
3.77271
4.6548
5.7415
7.08028
8.72753
10.7518
13.2358
16.2764
19.9875
24.4961
29.9349
36.4405
44.1698
53.2883
63.9436
76.2739
90.435
106.616
125.044
145.924
169.258
194.449
219.74
241.507
253.115
244.632
210.463
160.157
108.657
77.8829
65.3125
83.4301
94.6807
100.272
103.691
105.362
105.934
105.757
105.137
104.314
103.492
102.855
102.566
102.77
103.595
105.153
107.545
110.856
115.176
120.601
127.257
135.312
144.998
156.631
170.625
187.483
207.753
231.997
260.779
294.617
333.933
379.045
430.125
487.196
550.128
618.683
692.421
770.671
852.529
936.664
1021.38
1104.47
1182.77
1252.03
1306.37
1336.63
1333.3
1285.97
1179.32
999.34
733.372
374.869
-72.0395
-590.487
-1152.32
-1723.54
-2271.98
-2773.29
-3213.31
-3586.7
-3894.39
-4139.85
-4333.95
-4504.61
-4708.99
-4948.16
-5221.78
-5524.26
-5840.55
-6166.2
-6493.3
-6797.96
-7048.49
-7214.67
-7272.27
-7208.15
-7024.85
-6740.03
-6382.06
-5981.22
-5562.34
-5145.75
-4746.02
-4370.19
-4021.03
-3699.04
-3403.83
-3134
-2887.1
-2660.6
-2452.26
-2259.96
-2081.76
-1915.75
-1760.42
-1614.55
-1477.25
-1347.73
-1225.39
-1109.89
-1001
-898.517
-802.279
-711.976
-627.223
-547.567
-472.434
-401.149
-332.997
-267.314
-203.698
-142.395
-85.0302
-35.3072
2.35305
27.4224
44.3551
56.8978
66.3522
73.676
79.3674
81.9629
78.7588
69.7159
59.1325
52.7982
86.4888
63.7065
78.0233
109.399
160.507
211.114
245.343
253.646
241.825
219.905
194.523
169.283
145.924
125.034
106.602
90.4192
76.2588
63.9301
53.2766
44.16
36.4326
29.9285
24.4909
19.9832
16.2726
13.2319
10.7475
8.72224
7.07362
5.73316
4.64503
3.76317
3.04922
2.46802
1.99164
1.60102
1.28945
1.0468
0.863261
0.725849
0.608137
0.495842
0.387747
0.2915
0.214293
0.157711
0.11476
0.0826854
0.0408122
0.0317549
0.030173
0.048199
0.101749
0.144025
0.189346
0.230933
0.272094
0.321283
0.394207
0.505739
0.661119
0.854664
1.08201
1.336
1.63302
2.00496
2.47334
3.05619
3.773
4.65512
5.74182
7.08059
8.72786
10.7522
13.2362
16.277
19.9882
24.497
29.9361
36.442
44.1716
53.2905
63.9463
76.2769
90.4383
106.62
125.047
145.925
169.254
194.435
219.705
241.439
252.996
244.468
210.309
160.086
108.64
78.2732
65.4436
83.4506
94.6816
100.274
103.692
105.364
105.935
105.759
105.138
104.315
103.493
102.856
102.567
102.771
103.596
105.154
107.545
110.857
115.177
120.602
127.257
135.312
144.999
156.632
170.626
187.484
207.755
231.999
260.782
294.62
333.937
379.049
430.131
487.203
550.136
618.693
692.434
770.686
852.548
936.685
1021.4
1104.5
1182.79
1252.05
1306.38
1336.63
1333.3
1286.04
1179.64
1000.33
735.822
380.141
-61.8623
-572.557
-1123.17
-1679.39
-2209.11
-2688.25
-3102.93
-3447.92
-3723.59
-3934.52
-4103.85
-4277.69
-4489.43
-4736.63
-5016.94
-5328.16
-5657.99
-5998.02
-6339.46
-6660.02
-6928.51
-7114.28
-7192.31
-7148.26
-6983.17
-6713.28
-6366.15
-5972.31
-5557.5
-5143.13
-4744.56
-4369.35
-4020.52
-3698.73
-3403.64
-3133.87
-2887.02
-2660.55
-2452.22
-2259.93
-2081.74
-1915.74
-1760.41
-1614.55
-1477.25
-1347.73
-1225.39
-1109.89
-1001
-898.516
-802.278
-711.976
-627.222
-547.567
-472.434
-401.149
-332.996
-267.313
-203.697
-142.394
-85.0292
-35.3061
2.35405
27.4232
44.3557
56.8983
66.3526
73.6763
79.3677
81.9633
78.7603
69.7199
59.1392
52.8086
86.1466
62.5427
78.2938
109.489
160.604
211.277
245.515
253.771
241.898
219.942
194.539
169.287
145.924
125.031
106.598
90.4154
76.2552
63.9269
53.2739
44.1578
36.4308
29.9271
24.4898
19.9823
16.2719
13.2314
10.747
8.72186
7.07328
5.73282
4.6447
3.76287
3.049
2.46787
1.99131
1.60025
1.28833
1.04595
0.863461
0.727388
0.610574
0.498262
0.38933
0.291962
0.213896
0.156957
0.114062
0.0822306
0.0406359
0.0317926
0.0301441
0.0483341
0.102098
0.14456
0.189924
0.231237
0.27174
0.32007
0.392354
0.503873
0.659941
0.854511
1.08266
1.33686
1.63362
2.00523
2.47347
3.05636
3.77324
4.65539
5.7421
7.0809
8.72821
10.7526
13.2367
16.2777
19.9891
24.4982
29.9377
36.444
44.1741
53.2936
63.9499
76.2811
90.4428
106.624
125.051
145.926
169.248
194.415
219.658
241.344
252.831
244.238
210.093
159.991
108.686
78.8132
65.6899
83.4926
94.6859
100.278
103.696
105.367
105.938
105.761
105.14
104.317
103.495
102.858
102.569
102.772
103.597
105.156
107.547
110.859
115.178
120.603
127.259
135.314
145.001
156.634
170.628
187.487
207.758
232.003
260.787
294.627
333.945
379.058
430.142
487.216
550.152
618.713
692.458
770.716
852.584
936.727
1021.45
1104.55
1182.84
1252.1
1306.39
1336.61
1333.29
1286.14
1180.11
1001.77
739.361
387.742
-47.1763
-546.66
-1081.1
-1615.89
-2119.11
-2567.15
-2946.43
-3250.91
-3480.57
-3652.65
-3812.71
-3998.74
-4219.8
-4472.06
-4755.01
-5070.98
-5412.95
-5769.65
-6129.31
-6470.56
-6762.62
-6973.89
-7077.96
-7059.15
-6917.28
-6667.59
-6336.73
-5954.7
-5547.59
-5137.73
-4741.61
-4367.7
-4019.56
-3698.14
-3403.27
-3133.63
-2886.86
-2660.44
-2452.15
-2259.88
-2081.7
-1915.71
-1760.39
-1614.53
-1477.24
-1347.72
-1225.38
-1109.89
-1000.99
-898.514
-802.276
-711.974
-627.221
-547.566
-472.433
-401.148
-332.995
-267.312
-203.696
-142.393
-85.0279
-35.3044
2.35566
27.4244
44.3567
56.8991
66.3535
73.677
79.3682
81.9647
78.7648
69.7301
59.1554
52.826
85.5859
61.173
78.6048
109.58
160.747
211.51
245.754
253.943
241.997
219.991
194.56
169.293
145.923
125.027
106.593
90.4104
76.2506
63.9228
53.2704
44.1549
36.4284
29.9253
24.4884
19.9812
16.2711
13.2307
10.7465
8.72146
7.07293
5.73251
4.6444
3.76262
3.04882
2.46773
1.99104
1.59965
1.28747
1.0453
0.863612
0.728567
0.612443
0.500118
0.390545
0.292317
0.213592
0.156378
0.113527
0.0818816
0.0405006
0.0318215
0.0301219
0.0484381
0.102366
0.144972
0.190369
0.231471
0.271467
0.319138
0.390929
0.502439
0.659037
0.854396
1.08316
1.33753
1.63408
2.00544
2.47358
3.05651
3.77346
4.65565
5.74238
7.08122
8.72861
10.7531
13.2374
16.2786
19.9903
24.4998
29.9397
36.4466
44.1774
53.2977
63.9548
76.2867
90.449
106.63
125.056
145.927
169.241
194.388
219.594
241.214
252.602
243.918
209.792
159.863
108.84
79.522
66.1312
83.5751
94.6988
100.289
103.703
105.373
105.944
105.766
105.145
104.321
103.499
102.862
102.572
102.776
103.6
105.159
107.55
110.861
115.181
120.606
127.262
135.318
145.004
156.638
170.633
187.493
207.765
232.011
260.797
294.638
333.958
379.075
430.162
487.24
550.182
618.749
692.502
770.77
852.649
936.806
1021.54
1104.65
1182.93
1252.16
1306.41
1336.59
1333.27
1286.26
1180.77
1003.81
744.413
398.611
-26.2146
-509.874
-1021.73
-1526.86
-1993.74
-2399.35
-2729.1
-2975.8
-3153.26
-3306.59
-3476.8
-3676.48
-3904.83
-4160.34
-4443.34
-4757.89
-5103.14
-5472.1
-5851.02
-6216.77
-6538.34
-6782.7
-6921.2
-6935.63
-6823.72
-6599.67
-6289.78
-5924.13
-5529.03
-5127.12
-4735.74
-4364.45
-4017.71
-3697.05
-3402.6
-3133.21
-2886.58
-2660.25
-2452.02
-2259.79
-2081.63
-1915.67
-1760.35
-1614.5
-1477.22
-1347.71
-1225.37
-1109.88
-1000.99
-898.508
-802.272
-711.971
-627.218
-547.563
-472.431
-401.146
-332.994
-267.311
-203.694
-142.391
-85.0259
-35.3018
2.35851
27.4268
44.3585
56.9009
66.3552
73.6786
79.3699
81.9687
78.7758
69.7531
59.1873
52.8549
84.7204
59.9868
78.9168
109.647
160.955
211.841
246.086
254.179
242.132
220.057
194.587
169.301
145.921
125.022
106.586
90.4038
76.2445
63.9175
53.2659
44.1512
36.4255
29.9229
24.4866
19.9798
16.27
13.23
10.7459
8.72101
7.07257
5.7322
4.64413
3.76239
3.04866
2.46762
1.99082
1.59918
1.2868
1.0448
0.863728
0.729473
0.61388
0.501546
0.391479
0.292589
0.213357
0.155932
0.113114
0.0816129
0.0403964
0.0318438
0.0301047
0.0485185
0.102573
0.14529
0.190712
0.231652
0.271257
0.318418
0.389829
0.501333
0.65834
0.854309
1.08355
1.33804
1.63445
2.00561
2.47368
3.05666
3.77366
4.6559
5.74268
7.08159
8.72909
10.7538
13.2383
16.2798
19.9919
24.5019
29.9425
36.4502
44.1819
53.3032
63.9614
76.2943
90.4573
106.639
125.062
145.929
169.23
194.352
219.506
241.035
252.288
243.476
209.375
159.692
109.176
80.4001
66.8937
83.7291
94.7283
100.31
103.718
105.385
105.955
105.776
105.153
104.329
103.506
102.868
102.578
102.781
103.605
105.164
107.555
110.866
115.186
120.612
127.268
135.324
145.011
156.646
170.642
187.503
207.777
232.025
260.813
294.658
333.983
379.104
430.197
487.283
550.234
618.812
692.58
770.864
852.762
936.94
1021.69
1104.8
1183.06
1252.24
1306.43
1336.53
1333.21
1286.41
1181.68
1006.68
751.556
413.954
3.21376
-458.618
-939.728
-1405.14
-1823.92
-2171.7
-2431.86
-2614.14
-2765.02
-2925.8
-3110.5
-3319.8
-3552.47
-3809.2
-4090.99
-4400.16
-4739.89
-5108.77
-5499
-5888.69
-6243.38
-6527.59
-6709.66
-6767.73
-6695.8
-6505.59
-6222.69
-5877.87
-5498.6
-5108.22
-4724.61
-4358.14
-4014.15
-3695
-3401.37
-3132.44
-2886.08
-2659.92
-2451.79
-2259.63
-2081.52
-1915.58
-1760.29
-1614.46
-1477.18
-1347.68
-1225.35
-1109.86
-1000.97
-898.499
-802.265
-711.965
-627.214
-547.559
-472.427
-401.143
-332.991
-267.308
-203.692
-142.388
-85.0224
-35.2976
2.36381
27.4314
44.3623
56.9045
66.3589
73.6822
79.3743
81.9783
78.7987
69.7962
59.2387
52.9062
83.4266
58.8136
79.1222
109.668
161.256
212.314
246.549
254.504
242.315
220.147
194.624
169.311
145.919
125.014
106.577
90.3949
76.2364
63.9104
53.2599
44.1463
36.4216
29.9199
24.4842
19.9781
16.2687
13.229
10.7452
8.72048
7.07217
5.73188
4.64386
3.76217
3.04851
2.46751
1.99065
1.59881
1.28628
1.04441
0.863814
0.730171
0.614989
0.502649
0.3922
0.2928
0.213176
0.155588
0.112795
0.0814051
0.0403159
0.031861
0.0300914
0.048581
0.102734
0.145537
0.190979
0.231792
0.271095
0.31786
0.388977
0.500476
0.657802
0.854244
1.08385
1.33845
1.63474
2.00576
2.47378
3.0568
3.77387
4.65617
5.74302
7.08204
8.72969
10.7546
13.2394
16.2813
19.994
24.5047
29.9462
36.455
44.1879
53.3106
63.9703
76.3045
90.4685
106.65
125.072
145.931
169.217
194.303
219.387
240.79
251.856
242.866
208.8
159.471
109.796
81.4262
68.1671
84.0078
94.7899
100.351
103.746
105.407
105.973
105.792
105.168
104.342
103.518
102.879
102.588
102.791
103.614
105.172
107.563
110.875
115.194
120.62
127.277
135.334
145.022
156.659
170.657
187.52
207.797
232.049
260.842
294.692
334.024
379.153
430.256
487.355
550.322
618.919
692.709
771.02
852.946
937.146
1021.91
1105.01
1183.23
1252.34
1306.43
1336.42
1333.1
1286.57
1182.9
1010.66
761.522
435.291
43.8128
-388.705
-829.483
-1243.65
-1598.01
-1865.26
-2050.4
-2200.84
-2356.66
-2531.49
-2726.72
-2941.54
-3176.28
-3432.06
-3710.03
-4011.76
-4339.92
-4697.67
-5083.32
-5484.55
-5870.17
-6197.64
-6430.75
-6542.81
-6522.66
-6377.59
-6130.88
-5813.41
-5454.35
-5078.75
-4705.78
-4346.68
-4007.44
-3691.12
-3399.09
-3131.05
-2885.2
-2659.34
-2451.4
-2259.35
-2081.32
-1915.44
-1760.18
-1614.38
-1477.12
-1347.64
-1225.32
-1109.84
-1000.95
-898.482
-802.252
-711.955
-627.205
-547.552
-472.422
-401.138
-332.986
-267.304
-203.687
-142.384
-85.0167
-35.2911
2.37254
27.4396
44.3691
56.911
66.3658
73.6892
79.3835
81.9973
78.8394
69.8652
59.3085
52.9957
81.5474
57.8141
78.9043
109.644
161.672
212.992
247.195
254.952
242.566
220.268
194.674
169.325
145.916
125.005
106.566
90.3832
76.2256
63.9011
53.2521
44.14
36.4165
29.916
24.4812
19.9758
16.2671
13.2278
10.7443
8.71984
7.07169
5.73151
4.64358
3.76195
3.04836
2.4674
1.99049
1.59852
1.28587
1.0441
0.863879
0.730711
0.615849
0.503504
0.39276
0.292963
0.213035
0.15532
0.112548
0.0812437
0.0402532
0.0318743
0.030081
0.0486298
0.10286
0.14573
0.191188
0.231902
0.270968
0.317425
0.388314
0.499809
0.657384
0.854196
1.0841
1.33878
1.63499
2.0059
2.47389
3.05695
3.7741
4.65647
5.74343
7.08259
8.73045
10.7556
13.2409
16.2833
19.9968
24.5084
29.9511
36.4613
44.1959
53.3205
63.9821
76.3182
90.4836
106.665
125.084
145.935
169.198
194.236
219.224
240.456
251.264
242.031
208.014
159.203
110.818
82.6164
70.2145
84.4998
94.9127
100.427
103.796
105.446
106.005
105.819
105.192
104.364
103.538
102.897
102.605
102.806
103.629
105.187
107.577
110.889
115.208
120.635
127.292
135.35
145.041
156.68
170.681
187.548
207.83
232.088
260.889
294.748
334.091
379.234
430.354
487.474
550.465
619.092
692.917
771.263
853.218
937.437
1022.2
1105.28
1183.45
1252.45
1306.38
1336.21
1332.84
1286.69
1184.49
1016.09
775.217
464.459
98.6158
-296.07
-685.842
-1031.97
-1297.47
-1482.36
-1632.85
-1786.1
-1954.39
-2139.23
-2340.12
-2557.31
-2791.61
-3043.94
-3315.36
-3607.23
-3921.45
-4260.76
-4628.43
-5021.47
-5420.87
-5787.78
-6074.99
-6249.11
-6292.04
-6204.77
-6006.17
-5725.65
-5393.55
-5037.09
-4677.64
-4328.21
-3995.8
-3684.05
-3394.87
-3128.51
-2883.63
-2658.32
-2450.72
-2258.89
-2080.99
-1915.2
-1760.01
-1614.25
-1477.02
-1347.56
-1225.26
-1109.79
-1000.92
-898.455
-802.23
-711.938
-627.191
-547.541
-472.412
-401.13
-332.979
-267.297
-203.68
-142.376
-85.0081
-35.2815
2.38409
27.4523
44.38
56.9215
66.3768
73.7008
79.3996
82.0296
78.9033
69.9613
59.3891
53.1343
78.9196
57.9249
77.6654
109.869
162.192
213.965
248.103
255.569
242.908
220.433
194.74
169.343
145.912
124.991
106.55
90.3676
76.2114
63.8888
53.2418
44.1316
36.4099
29.9108
24.4773
19.9729
16.2649
13.2262
10.7432
8.71902
7.0711
5.73108
4.64325
3.76171
3.0482
2.46729
1.99035
1.59827
1.28554
1.04385
0.863925
0.73113
0.616519
0.504171
0.393196
0.29309
0.212924
0.155111
0.112354
0.0811174
0.0402042
0.0318848
0.0300728
0.0486683
0.10296
0.145883
0.191353
0.23199
0.270869
0.317084
0.387793
0.499287
0.657059
0.854163
1.0843
1.33905
1.63519
2.00603
2.47402
3.05713
3.77436
4.65684
5.74394
7.08329
8.73143
10.757
13.2428
16.286
20.0004
24.5134
29.9576
36.4697
44.2066
53.3336
63.9979
76.3365
90.5038
106.685
125.101
145.94
169.173
194.145
219.002
240.001
250.458
240.892
206.95
158.909
112.345
84.1607
73.3272
85.3488
95.151
100.564
103.883
105.511
106.058
105.865
105.232
104.4
103.57
102.927
102.633
102.832
103.654
105.21
107.599
110.911
115.231
120.658
127.317
135.377
145.07
156.713
170.719
187.593
207.883
232.151
260.963
294.838
334.198
379.364
430.51
487.661
550.69
619.36
693.227
771.612
853.595
937.829
1022.59
1105.63
1183.71
1252.54
1306.23
1335.78
1332.33
1286.66
1186.47
1023.35
793.695
503.407
170.229
-177.234
-499.261
-752.652
-933.059
-1082.61
-1233.76
-1396.98
-1573.55
-1763.13
-1965.93
-2182.56
-2413.64
-2659.95
-2922.42
-3202.08
-3500.54
-3819.54
-4161.62
-4529.81
-4919.32
-5304.07
-5639.73
-5878.41
-5992.93
-5975.45
-5837.98
-5606.36
-5310.81
-4980.26
-4638.63
-4301.54
-3977.85
-3672.32
-3387.45
-3123.91
-2880.78
-2656.52
-2449.55
-2258.1
-2080.44
-1914.81
-1759.72
-1614.04
-1476.86
-1347.44
-1225.17
-1109.72
-1000.86
-898.412
-802.196
-711.91
-627.169
-547.522
-472.396
-401.116
-332.967
-267.286
-203.67
-142.365
-84.9962
-35.268
2.3978
27.4692
44.3963
56.9372
66.3932
73.7182
79.4243
82.0779
78.9926
70.0793
59.47
53.3236
75.2974
58.4438
75.6499
110.913
162.719
215.337
249.389
256.423
243.376
220.656
194.83
169.366
145.906
124.974
106.529
90.3468
76.1926
63.8724
53.2282
44.1205
36.4011
29.904
24.4722
19.969
16.2621
13.2242
10.7418
8.71799
7.07036
5.73055
4.64287
3.76144
3.04801
2.46716
1.99022
1.59806
1.28527
1.04365
0.863957
0.731456
0.617043
0.504694
0.393539
0.293189
0.212837
0.154946
0.112201
0.0810178
0.0401656
0.031893
0.0300663
0.048699
0.103039
0.146004
0.191484
0.232059
0.270791
0.316815
0.387382
0.498875
0.656805
0.854143
1.08446
1.33927
1.63538
2.00617
2.47416
3.05735
3.77468
4.6573
5.74458
7.0842
8.73272
10.7588
13.2454
16.2896
20.0053
24.5199
29.9662
36.4809
44.2208
53.3512
64.019
76.361
90.5307
106.713
125.123
145.946
169.139
194.021
218.7
239.382
249.364
239.353
205.53
158.632
114.443
86.5352
77.6992
86.7739
95.6036
100.81
104.034
105.622
106.146
105.939
105.297
104.457
103.622
102.974
102.677
102.873
103.692
105.247
107.635
110.946
115.267
120.695
127.356
135.419
145.117
156.766
170.78
187.664
207.967
232.25
261.082
294.979
334.367
379.566
430.753
487.95
551.029
619.748
693.661
772.085
854.098
938.345
1023.09
1106.07
1183.99
1252.56
1305.85
1334.95
1331.32
1286.24
1188.76
1032.8
817.897
553.43
260.823
-23.2454
-254.356
-425.348
-571.564
-719.456
-877.361
-1046.2
-1225.66
-1415.92
-1617.36
-1830.41
-2055.57
-2293.46
-2544.89
-2810.67
-3091.84
-3389.74
-3705.76
-4042.02
-4400.93
-4775.95
-5134.92
-5430.46
-5618.27
-5679.28
-5615.26
-5445.55
-5198.19
-4902.79
-4585.54
-4264.99
-3952.6
-3654.96
-3375.73
-3116.18
-2875.79
-2653.33
-2447.48
-2256.72
-2079.5
-1914.15
-1759.25
-1613.69
-1476.6
-1347.24
-1225.01
-1109.6
-1000.77
-898.341
-802.14
-711.865
-627.133
-547.493
-472.371
-401.094
-332.948
-267.269
-203.654
-142.35
-84.9806
-35.2501
2.41604
27.4891
44.4187
56.9594
66.4163
73.7421
79.4582
82.1442
79.1071
70.2091
59.5421
53.5244
70.4672
58.8533
75.326
111.237
162.923
217.107
251.226
257.613
244.016
220.959
194.95
169.398
145.898
124.95
106.501
90.3191
76.1675
63.8508
53.2102
44.106
36.3896
29.8951
24.4654
19.964
16.2584
13.2215
10.7399
8.71665
7.06942
5.72989
4.6424
3.76111
3.04779
2.46701
1.99007
1.59787
1.28505
1.04348
0.863975
0.731711
0.617457
0.505107
0.393809
0.293267
0.212767
0.154814
0.11208
0.0809385
0.0401348
0.0318995
0.0300611
0.0487237
0.103102
0.146101
0.19159
0.232116
0.270729
0.3166
0.387054
0.498548
0.656607
0.854136
1.08461
1.33947
1.63556
2.00632
2.47435
3.05762
3.77508
4.65787
5.7454
7.08538
8.73441
10.7612
13.2487
16.2943
20.0117
24.5286
29.9777
36.4958
44.2396
53.3745
64.047
76.3935
90.5666
106.749
125.153
145.954
169.092
193.853
218.291
238.544
247.887
237.29
203.676
158.426
117.183
90.4937
83.3252
89.072
96.4356
101.245
104.296
105.807
106.29
106.059
105.401
104.55
103.705
103.05
102.746
102.938
103.753
105.305
107.691
111.002
115.323
120.753
127.417
135.486
145.191
156.849
170.875
187.775
208.097
232.404
261.264
295.197
334.627
379.875
431.114
488.368
551.503
620.277
694.243
772.715
854.761
939.015
1023.72
1106.58
1184.25
1252.39
1305.03
1333.4
1329.38
1285
1191.12
1044.43
847.965
615.743
378.816
178.021
21.3953
-118.078
-260.231
-411.154
-571.354
-740.522
-918.73
-1106.2
-1303.15
-1509.88
-1726.78
-1954.35
-2193.15
-2443.8
-2706.87
-2983.31
-3273.96
-3579.7
-3902.08
-4242.59
-4593.44
-4918.61
-5170.01
-5310.32
-5328.36
-5232.85
-5046.33
-4797.17
-4512.99
-4215.2
-3918.2
-3630.98
-3358.94
-3104.48
-2867.76
-2647.93
-2443.89
-2254.34
-2077.89
-1913.03
-1758.45
-1613.11
-1476.18
-1346.92
-1224.77
-1109.42
-1000.63
-898.229
-802.051