/*--------------------------------*- C++ -*----------------------------------*\
| =========                 |                                                 |
| \\      /  F ield         | OpenFOAM: The Open Source CFD Toolbox           |
|  \\    /   O peration     | Version:  2112                                  |
|   \\  /    A nd           | Website:  www.openfoam.com                      |
|    \\/     M anipulation  |                                                 |
\*---------------------------------------------------------------------------*/
FoamFile
{
    version     2.0;
    format      ascii;
    arch        "LSB;label=32;scalar=64";
    class       surfaceScalarField;
    location    "1226";
    object      phi;
}
// * * * * * * * * * * * * * * * * * * * * * * * * * * * * * * * * * * * * * //

dimensions      [0 3 -1 0 0 0 0];

oriented        oriented;

internalField   nonuniform List<scalar> 
28432
(
-0.000183471
864.141
-864.141
-0.000183468
698.591
-698.591
-0.000183466
564.726
-564.726
-0.000183464
456.468
-456.468
-0.000183463
368.929
-368.929
-0.000183463
298.144
-298.144
-0.000183463
240.904
-240.904
-0.000183464
194.614
-194.614
-0.000183465
157.18
-157.18
-0.000183467
126.911
-126.911
-0.000183469
102.441
-102.441
-0.000183381
82.6607
-82.6607
-0.000183474
66.6723
-66.6723
-0.000183477
53.7475
-53.7475
-0.000183385
43.2976
-43.2976
-0.000183466
34.8485
-34.8485
-0.000183458
28.0191
-28.0191
-0.000183457
22.5009
-22.5009
-0.00018347
18.0445
-18.0445
-0.000183506
14.4475
-14.4475
-0.000183564
11.5458
-11.5458
-0.000183623
9.20621
-9.20621
-0.000183642
7.32066
-7.32066
-0.000183583
5.80216
-5.80216
-0.000183445
4.5813
-4.5813
-0.000183277
3.60292
-3.60292
-0.000183131
2.82239
-2.82239
-0.000183008
2.20259
-2.20259
-0.000182862
1.71241
-1.71241
-0.000182644
1.32633
-1.32633
-0.00018233
1.02379
-1.02379
-0.000181914
0.788166
-0.788167
-0.000181393
0.605865
-0.605866
-0.000180765
0.465771
-0.465771
-0.00018002
0.358826
-0.358826
-0.000179147
0.277742
-0.277743
-0.000178148
0.216772
-0.216773
-0.000177057
0.171467
-0.171468
-0.000175951
0.138443
-0.138444
-0.000174931
0.115074
-0.115075
-0.000174051
0.0991521
-0.099153
-0.000173238
0.0885707
-0.0885715
-0.000172136
0.0810798
-0.0810809
-0.000169804
0.0741248
-0.0741271
-0.000164414
0.0650458
-0.0650512
-0.00015319
0.0525143
-0.0525255
-0.000128333
0.0377482
-0.0377731
-5.7643e-05
0.0227379
-0.0228086
-1.46025e-06
-5.61829e-05
-1.51842e-06
5.81777e-08
-1.39493e-06
-1.2349e-07
-1.32953e-06
-6.52341e-08
-1.29557e-06
-3.41525e-08
-1.27614e-06
-1.94415e-08
-1.2627e-06
-1.34303e-08
-1.25361e-06
-9.10736e-09
-1.25053e-06
-3.07478e-09
-1.25114e-06
7.78934e-10
-1.25403e-06
2.67674e-09
-1.25864e-06
4.60179e-09
-1.26426e-06
5.6012e-09
-1.27037e-06
6.09994e-09
-1.27679e-06
6.41228e-09
-1.28355e-06
6.73007e-09
-1.29091e-06
7.35624e-09
-1.29924e-06
8.54178e-09
-1.30897e-06
9.38893e-09
-1.3206e-06
1.1634e-08
-1.33452e-06
1.38581e-08
-1.35109e-06
1.65248e-08
-1.37069e-06
1.95069e-08
-1.39368e-06
2.29665e-08
-1.42022e-06
2.64661e-08
-1.45022e-06
2.99474e-08
-1.48336e-06
3.30322e-08
-1.51882e-06
3.54038e-08
-1.55691e-06
3.79906e-08
-1.59659e-06
3.98822e-08
-1.63581e-06
3.88483e-08
-1.67325e-06
3.74007e-08
-1.70658e-06
3.32786e-08
-1.73322e-06
2.65595e-08
-1.75031e-06
1.70427e-08
-1.75487e-06
4.57082e-09
-1.74331e-06
-1.15568e-08
-1.70915e-06
-3.4138e-08
-1.63637e-06
-7.29695e-08
-1.50642e-06
-1.29815e-07
-1.35892e-06
-1.4749e-07
-1.24231e-06
-1.16568e-07
-1.09844e-06
-1.43867e-07
-8.48724e-07
-2.49709e-07
-4.51957e-07
-3.96814e-07
1.31421e-07
-5.83313e-07
9.69475e-07
-8.38056e-07
2.15612e-06
-1.18665e-06
3.78107e-06
-1.62495e-06
5.93294e-06
-2.1525e-06
8.67937e-06
-2.74571e-06
1.20418e-05
-3.36242e-06
1.59848e-05
-3.94296e-06
2.04228e-05
-4.43913e-06
2.52502e-05
-4.82614e-06
3.03886e-05
-5.13907e-06
3.58323e-05
-5.44285e-06
4.16769e-05
-5.84461e-06
4.8127e-05
-6.45034e-06
5.54843e-05
-7.35705e-06
6.41583e-05
-8.67398e-06
7.43244e-05
-1.0166e-05
8.70808e-05
-1.27564e-05
9.82171e-05
-1.11363e-05
8.36406e-05
1.45764e-05
7.30728e-05
1.05678e-05
6.56865e-05
7.38634e-06
6.13514e-05
4.33511e-06
5.76961e-05
3.65529e-06
5.2779e-05
4.91704e-06
4.66834e-05
6.09567e-06
4.06024e-05
6.08095e-06
3.52491e-05
5.35329e-06
3.06677e-05
4.58142e-06
2.6619e-05
4.04869e-06
2.29317e-05
3.68728e-06
1.95415e-05
3.3902e-06
1.64744e-05
3.06713e-06
1.3645e-05
2.8294e-06
1.11967e-05
2.44833e-06
9.41981e-06
1.77689e-06
8.12081e-06
1.29899e-06
7.061e-06
1.05981e-06
6.11697e-06
9.44012e-07
5.33986e-06
7.78979e-07
4.75447e-06
5.83753e-07
4.28366e-06
4.70881e-07
3.87067e-06
4.12959e-07
3.49266e-06
3.78039e-07
3.166e-06
3.28121e-07
2.88551e-06
2.79081e-07
2.6392e-06
2.46305e-07
2.40501e-06
2.3419e-07
2.18455e-06
2.20451e-07
1.99322e-06
1.9283e-07
1.82723e-06
1.65053e-07
1.6722e-06
1.56115e-07
1.52324e-06
1.47575e-07
1.38972e-06
1.34398e-07
1.27083e-06
1.18114e-07
1.16494e-06
1.05913e-07
1.06893e-06
9.60572e-08
9.76903e-07
9.20575e-08
8.89476e-07
8.74505e-08
8.0918e-07
8.03351e-08
7.32301e-07
7.68897e-08
6.54697e-07
7.76298e-08
5.73335e-07
8.13614e-08
4.85457e-07
8.79031e-08
3.88508e-07
9.71413e-08
2.81346e-07
1.07053e-07
1.67513e-07
1.13744e-07
6.01553e-08
1.07483e-07
-2.93686e-08
8.95431e-08
-9.28632e-08
6.35011e-08
-1.29718e-07
3.68699e-08
-1.53252e-07
2.35493e-08
-1.7253e-07
1.87947e-08
-1.86801e-07
1.47066e-08
-1.88494e-07
1.78405e-09
-1.7783e-07
-1.06422e-08
-1.84798e-07
6.98262e-09
-2.63103e-07
7.82314e-08
-4.61105e-07
1.98101e-07
-8.30495e-07
3.69411e-07
-1.19695e-06
3.66456e-07
-1.41877e-06
2.21825e-07
5.45431e-05
-5.59619e-05
0.000128115
0.0226643
0.000153145
0.0377232
0.000164382
0.0525031
0.000169785
0.0650404
0.000172128
0.0741224
0.000173236
0.0810787
0.000174051
0.0885699
0.000174931
0.0991513
0.000175952
0.115073
0.000177057
0.138442
0.000178148
0.171466
0.000179147
0.216771
0.00018002
0.277742
0.000180765
0.358825
0.000181394
0.46577
0.000181914
0.605865
0.00018233
0.788166
0.000182644
1.02379
0.000182862
1.32633
0.000183008
1.71241
0.000183131
2.20259
0.000183277
2.82239
0.000183445
3.60292
0.000183583
4.5813
0.000183642
5.80216
0.000183623
7.32066
0.000183564
9.20621
0.000183506
11.5458
0.00018347
14.4475
0.000183457
18.0445
0.000183458
22.5009
0.000183466
28.0191
0.000183562
34.8485
0.000183477
43.2976
0.000183474
53.7475
0.000183559
66.6723
0.000183469
82.6607
0.000183466
102.441
0.000183465
126.911
0.000183464
157.18
0.000183463
194.614
0.000183463
240.904
0.000183463
298.144
0.000183464
368.929
0.000183466
456.468
0.000183468
564.726
0.000183471
698.591
864.141
-0.000241464
-864.141
-0.00024146
-698.591
-0.000241458
-564.726
-0.000241458
-456.468
-0.000241458
-368.929
-0.000241459
-298.144
-0.000241461
-240.904
-0.000241464
-194.614
-0.000241469
-157.18
-0.000241475
-126.911
-0.000241483
-102.441
-0.000241491
-82.6607
-0.000241503
-66.6723
-0.000241515
-53.7475
-0.000241523
-43.2976
-0.000241527
-34.8485
-0.000241534
-28.0191
-0.000241552
-22.5009
-0.000241587
-18.0445
-0.000241676
-14.4475
-0.000241792
-11.5458
-0.000241919
-9.20621
-0.000242005
-7.32066
-0.000242003
-5.80216
-0.000241907
-4.5813
-0.000241809
-3.60292
-0.000241758
-2.82239
-0.000241771
-2.20259
-0.000241795
-1.71241
-0.000241775
-1.32633
-0.00024169
-1.02379
-0.000241545
-0.788167
-0.000241355
-0.605866
-0.000241135
-0.465771
-0.000240898
-0.358827
-0.000240659
-0.277743
-0.000240455
-0.216773
-0.000240373
-0.171468
-0.000240572
-0.138444
-0.00024125
-0.115074
-0.000242567
-0.0991517
-0.000244513
-0.0885695
-0.000246694
-0.0810787
-0.000247838
-0.0741259
-0.000245231
-0.0650538
-0.000234386
-0.0525364
-0.000202574
-0.0378049
-9.72865e-05
-0.0229139
-8.59952e-06
-0.00014487
-8.39344e-06
-1.47891e-07
-7.51935e-06
-9.97569e-07
-7.00263e-06
-5.81657e-07
-6.68228e-06
-3.54863e-07
-6.46026e-06
-2.41473e-07
-6.28738e-06
-1.86303e-07
-6.15175e-06
-1.4475e-07
-6.05868e-06
-9.6141e-08
-5.99432e-06
-6.33121e-08
-5.95005e-06
-4.19529e-08
-5.92181e-06
-2.36437e-08
-5.90506e-06
-1.1179e-08
-5.89664e-06
-2.33705e-09
-5.89483e-06
4.58978e-09
-5.89921e-06
1.10458e-08
-5.91042e-06
1.85739e-08
-5.92961e-06
2.80517e-08
-5.95848e-06
3.76594e-08
-5.99894e-06
5.21073e-08
-6.05246e-06
6.72567e-08
-6.12044e-06
8.44195e-08
-6.20461e-06
1.03473e-07
-6.30646e-06
1.24775e-07
-6.4268e-06
1.46644e-07
-6.56535e-06
1.68395e-07
-6.7208e-06
1.88256e-07
-6.88986e-06
2.04358e-07
-7.07433e-06
2.22263e-07
-7.27007e-06
2.35919e-07
-7.46822e-06
2.36296e-07
-7.66351e-06
2.32634e-07
-7.84604e-06
2.15638e-07
-8.00438e-06
1.84731e-07
-8.12591e-06
1.38468e-07
-8.19693e-06
7.56262e-08
-8.20053e-06
-7.9663e-09
-8.10493e-06
-1.29692e-07
-7.83093e-06
-3.47281e-07
-7.28251e-06
-6.78042e-07
-6.64495e-06
-7.85014e-07
-6.15762e-06
-6.03791e-07
-5.53119e-06
-7.70319e-07
-4.35052e-06
-1.43035e-06
-2.36419e-06
-2.38323e-06
7.00897e-07
-3.64825e-06
5.3116e-06
-5.44876e-06
1.2145e-05
-8.02008e-06
2.19565e-05
-1.14365e-05
3.56245e-05
-1.58217e-05
5.40661e-05
-2.11858e-05
7.80955e-05
-2.73917e-05
0.000108329
-3.4176e-05
0.000145172
-4.12851e-05
0.000188943
-4.85938e-05
0.000240141
-5.6339e-05
0.000299809
-6.51089e-05
0.000369863
-7.58994e-05
0.000453369
-8.99559e-05
0.000554664
-0.000108652
0.000679645
-0.000133655
0.000832685
-0.000163206
0.0010257
-0.000205774
0.00119686
-0.000182291
0.00100211
0.000209327
0.000830094
0.00018258
0.000706697
0.000130784
0.000628012
8.30193e-05
0.000561025
7.06422e-05
0.000487064
7.88784e-05
0.000409322
8.38374e-05
0.000338816
7.65871e-05
0.000280448
6.37218e-05
0.000233046
5.19828e-05
0.000193529
4.3566e-05
0.000159771
3.74453e-05
0.000130698
3.24633e-05
0.000105968
2.77973e-05
8.46011e-05
2.4196e-05
6.7072e-05
1.99774e-05
5.46118e-05
1.42372e-05
4.56573e-05
1.02534e-05
3.86012e-05
8.11596e-06
3.26126e-05
6.93255e-06
2.78373e-05
5.55768e-06
2.4291e-05
4.12721e-06
2.14986e-05
3.26351e-06
1.91253e-05
2.78616e-06
1.70254e-05
2.478e-06
1.52526e-05
2.10341e-06
1.37603e-05
1.76905e-06
1.24755e-05
1.53112e-06
1.12835e-05
1.42622e-06
1.0184e-05
1.31986e-06
9.24181e-06
1.13764e-06
8.43325e-06
9.72179e-07
7.68834e-06
9.02734e-07
6.98171e-06
8.51848e-07
6.35372e-06
7.63866e-07
5.79876e-06
6.71806e-07
5.30784e-06
5.96887e-07
4.86558e-06
5.38409e-07
4.44451e-06
5.13198e-07
4.04672e-06
4.85303e-07
3.68316e-06
4.43971e-07
3.33658e-06
4.23479e-07
2.98782e-06
4.26443e-07
2.62272e-06
4.46474e-07
2.22823e-06
4.82462e-07
1.7919e-06
5.338e-07
1.30738e-06
5.91418e-07
7.89165e-07
6.31821e-07
2.95815e-07
6.01052e-07
-1.21041e-07
5.06448e-07
-4.21953e-07
3.64427e-07
-6.01196e-07
2.16139e-07
-7.1958e-07
1.41972e-07
-8.20031e-07
1.18408e-07
-8.99146e-07
9.45597e-08
-9.20091e-07
2.29262e-08
-8.83722e-07
-4.69603e-08
-9.40721e-07
6.4023e-08
-1.37135e-06
5.08731e-07
-2.44953e-06
1.27648e-06
-4.47761e-06
2.39753e-06
-6.61426e-06
2.50312e-06
-7.84422e-06
1.4518e-06
8.52116e-05
-0.000149018
0.000201267
0.0225483
0.000234139
0.0376903
0.000245063
0.0524921
0.000247742
0.0650377
0.000246653
0.0741235
0.000244501
0.0810808
0.000242565
0.0885718
0.000241252
0.0991526
0.000240574
0.115073
0.000240374
0.138442
0.000240455
0.171466
0.00024066
0.21677
0.000240899
0.277741
0.000241136
0.358825
0.000241356
0.46577
0.000241545
0.605865
0.00024169
0.788166
0.000241775
1.02379
0.000241795
1.32633
0.000241771
1.71241
0.000241758
2.20259
0.000241809
2.82239
0.000241922
3.60292
0.000242003
4.5813
0.000242005
5.80216
0.000241919
7.32066
0.000241792
9.20621
0.000241676
11.5458
0.000241605
14.4475
0.000241552
18.0445
0.000241533
22.5009
0.000241527
28.0191
0.000241523
34.8485
0.000241516
43.2976
0.000241503
53.7475
0.000241491
66.6723
0.000241483
82.6607
0.000241475
102.441
0.000241469
126.911
0.000241464
157.18
0.000241461
194.614
0.000241459
240.904
0.000241458
298.144
0.000241458
368.929
0.000241458
456.468
0.00024146
564.726
0.000241464
698.591
864.141
-0.000317788
-864.141
-0.000317783
-698.591
-0.000317783
-564.726
-0.000317783
-456.468
-0.000316883
-368.929
-0.000317788
-298.144
-0.000317794
-240.904
-0.000317802
-194.614
-0.000317812
-157.18
-0.000317825
-126.911
-0.000317841
-102.441
-0.000317859
-82.6607
-0.000317886
-66.6723
-0.000317914
-53.7475
-0.000317938
-43.2976
-0.000317962
-34.8485
-0.000317993
-28.0191
-0.000318045
-22.5009
-0.000318137
-18.0445
-0.000318285
-14.4475
-0.00031849
-11.5458
-0.000318722
-9.20621
-0.000318917
-7.32066
-0.000319012
-5.80216
-0.000319019
-4.5813
-0.00031903
-3.60292
-0.00031915
-2.82239
-0.000319398
-2.20259
-0.000319714
-1.71241
-0.000320039
-1.32633
-0.000320359
-1.02379
-0.000320699
-0.788167
-0.000321101
-0.605866
-0.000321611
-0.465771
-0.000322278
-0.358826
-0.00032316
-0.277743
-0.000324353
-0.216772
-0.000326028
-0.171467
-0.000328467
-0.138442
-0.000332021
-0.11507
-0.00033701
-0.0991467
-0.000343546
-0.088563
-0.000351204
-0.081071
-0.000358283
-0.0741189
-0.000360793
-0.0650513
-0.000351739
-0.0525454
-0.000311562
-0.037845
-0.000161816
-0.0230636
-2.88658e-05
-0.000277821
-2.67352e-05
-2.27851e-06
-2.34447e-05
-4.28802e-06
-2.13899e-05
-2.63605e-06
-2.00225e-05
-1.72281e-06
-1.90201e-05
-1.24387e-06
-1.82192e-05
-9.87201e-07
-1.75739e-05
-7.901e-07
-1.70897e-05
-5.80309e-07
-1.67193e-05
-4.33332e-07
-1.64327e-05
-3.29066e-07
-1.62138e-05
-2.42572e-07
-1.60466e-05
-1.78342e-07
-1.59196e-05
-1.29378e-07
-1.58257e-05
-8.93944e-08
-1.57618e-05
-5.29015e-08
-1.57279e-05
-1.53577e-08
-1.57257e-05
2.62649e-08
-1.57584e-05
6.96785e-08
-1.58301e-05
1.23805e-07
-1.59438e-05
1.80813e-07
-1.61028e-05
2.43291e-07
-1.6311e-05
3.11541e-07
-1.65725e-05
3.86122e-07
-1.68892e-05
4.6321e-07
-1.72609e-05
5.39989e-07
-1.76848e-05
6.11891e-07
-1.81531e-05
6.72483e-07
-1.86718e-05
7.40739e-07
-1.92313e-05
7.95817e-07
-1.98101e-05
8.14297e-07
-2.0396e-05
8.18428e-07
-2.09645e-05
7.84046e-07
-2.14871e-05
7.07167e-07
-2.1931e-05
5.82244e-07
-2.22601e-05
4.04746e-07
-2.24274e-05
1.59368e-07
-2.23432e-05
-2.13836e-07
-2.17793e-05
-9.11615e-07
-2.04474e-05
-2.00967e-06
-1.88526e-05
-2.3798e-06
-1.76847e-05
-1.77153e-06
-1.61091e-05
-2.3459e-06
-1.28666e-05
-4.67288e-06
-7.11498e-06
-8.13493e-06
2.12278e-06
-1.28859e-05
1.65055e-05
-1.98315e-05
3.84883e-05
-3.00029e-05
7.09641e-05
-4.39122e-05
0.000117448
-6.23078e-05
0.000181853
-8.55881e-05
0.000268024
-0.000113563
0.00037937
-0.000145521
0.000518693
-0.000180611
0.000688399
-0.000218297
0.000891196
-0.000259137
0.00113097
-0.000304884
0.00141336
-0.000358292
0.00174587
-0.000422462
0.00213734
-0.000500122
0.00259866
-0.000594978
0.00313606
-0.0007006
0.00377383
-0.000843548
0.00437325
-0.000781707
0.00382859
0.000753989
0.00325625
0.000754918
0.00275164
0.000635394
0.00233621
0.000498452
0.002003
0.000403846
0.00172261
0.000359267
0.00146996
0.000336495
0.00124059
0.000305956
0.00103753
0.000266777
0.00086109
0.000228426
0.000708184
0.000196472
0.000576115
0.000169514
0.000464045
0.000144533
0.000370869
0.000120974
0.000291688
0.000103377
0.000227435
8.42301e-05
0.000181289
6.03837e-05
0.000148013
4.35289e-05
0.000122232
3.38969e-05
0.000101034
2.81312e-05
8.44939e-05
2.21014e-05
7.23312e-05
1.62864e-05
6.29087e-05
1.26861e-05
5.51023e-05
1.05925e-05
4.83879e-05
9.19244e-06
4.28324e-05
7.66207e-06
3.82373e-05
6.36115e-06
3.43517e-05
5.41674e-06
3.08267e-05
4.9512e-06
2.7637e-05
4.50953e-06
2.49363e-05
3.84155e-06
2.26437e-05
3.26284e-06
2.05596e-05
2.9891e-06
1.86079e-05
2.80064e-06
1.68886e-05
2.48496e-06
1.53809e-05
2.17795e-06
1.40566e-05
1.92124e-06
1.28718e-05
1.7233e-06
1.17517e-05
1.6334e-06
1.06998e-05
1.53718e-06
9.74364e-06
1.40026e-06
8.83648e-06
1.33067e-06
7.92689e-06
1.33608e-06
6.9764e-06
1.39695e-06
5.949e-06
1.50993e-06
4.80965e-06
1.67355e-06
3.5381e-06
1.86277e-06
2.16802e-06
2.00174e-06
8.50341e-07
1.91899e-06
-2.78826e-07
1.63566e-06
-1.10901e-06
1.19462e-06
-1.61652e-06
7.2369e-07
-1.96253e-06
4.88012e-07
-2.2653e-06
4.20127e-07
-2.51621e-06
3.46417e-07
-2.61163e-06
1.18566e-07
-2.5551e-06
-1.03434e-07
-2.7893e-06
2.98253e-07
-4.16336e-06
1.88263e-06
-7.56288e-06
4.67624e-06
-1.39531e-05
8.78778e-06
-2.1045e-05
9.59504e-06
-2.48669e-05
5.2737e-06
0.000125449
-0.000299333
0.000307092
0.0223666
0.000350915
0.0376465
0.00036026
0.0524828
0.000357983
0.06504
0.000351086
0.0741304
0.00034351
0.0810884
0.000337006
0.0885783
0.000332025
0.0991576
0.000328471
0.115077
0.000326031
0.138445
0.000324354
0.171468
0.000323162
0.216772
0.000322279
0.277742
0.000321612
0.358825
0.000321102
0.46577
0.000320699
0.605865
0.000320359
0.788166
0.000320039
1.02379
0.000319715
1.32633
0.000319398
1.71241
0.00031915
2.20259
0.00031903
2.82239
0.000319019
3.60292
0.000319012
4.5813
0.000318917
5.80216
0.000318722
7.32066
0.00031849
9.20621
0.000318285
11.5458
0.000318137
14.4475
0.000318045
18.0445
0.000317993
22.5009
0.000317962
28.0191
0.000317938
34.8485
0.000317914
43.2976
0.000317886
53.7475
0.000317859
66.6723
0.000317841
82.6607
0.000317825
102.441
0.000317812
126.911
0.000317802
157.18
0.000317794
194.614
0.000317789
240.904
0.000318686
298.144
0.000317783
368.929
0.000317783
456.468
0.000317783
564.726
0.000317788
698.591
864.141
-0.000418237
-864.141
-0.000418232
-698.591
-0.000418232
-564.726
-0.000418234
-456.468
-0.000418239
-368.929
-0.000418247
-298.144
-0.000418258
-240.904
-0.000418273
-194.614
-0.000418292
-157.18
-0.000418316
-126.911
-0.000418345
-102.441
-0.000418379
-82.6607
-0.000418426
-66.6723
-0.000418479
-53.7475
-0.00041853
-43.2976
-0.000418585
-34.8485
-0.000418655
-28.0191
-0.000418761
-22.5009
-0.000418927
-18.0445
-0.000419169
-14.4475
-0.000419517
-11.5458
-0.000419908
-9.20621
-0.00042027
-7.32066
-0.000420527
-5.80216
-0.000420696
-4.5813
-0.00042091
-3.60292
-0.000421314
-2.82239
-0.000421944
-2.20259
-0.000422735
-1.71241
-0.000423624
-1.32633
-0.000424613
-1.02379
-0.000425759
-0.788165
-0.000427146
-0.605864
-0.00042887
-0.465769
-0.000431036
-0.358824
-0.000433774
-0.27774
-0.000437267
-0.216768
-0.00044182
-0.171462
-0.000447893
-0.138436
-0.000456074
-0.115062
-0.000466934
-0.0991359
-0.000480768
-0.0885492
-0.000497174
-0.0810546
-0.000513846
-0.0741022
-0.000525049
-0.0650401
-0.000520128
-0.0525503
-0.000470486
-0.0378947
-0.000270358
-0.0232638
-8.06022e-05
-0.000467578
-7.08636e-05
-1.20171e-05
-6.1157e-05
-1.39946e-05
-5.48821e-05
-8.91046e-06
-5.05426e-05
-6.06283e-06
-4.72824e-05
-4.50413e-06
-4.46538e-05
-3.61576e-06
-4.25178e-05
-2.92612e-06
-4.08649e-05
-2.23323e-06
-3.95616e-05
-1.73628e-06
-3.85215e-05
-1.36966e-06
-3.76957e-05
-1.06836e-06
-3.70376e-05
-8.36518e-07
-3.65128e-05
-6.54216e-07
-3.60994e-05
-5.02812e-07
-3.57851e-05
-3.6728e-07
-3.5566e-05
-2.34509e-07
-3.54422e-05
-9.71194e-08
-3.5418e-05
4.46412e-08
-3.55001e-05
2.05911e-07
-3.56934e-05
3.73915e-07
-3.60036e-05
5.53346e-07
-3.6439e-05
7.46605e-07
-3.70075e-05
9.54546e-07
-3.77144e-05
1.16981e-06
-3.85592e-05
1.38467e-06
-3.95372e-05
1.58948e-06
-4.06328e-05
1.76794e-06
-4.18619e-05
1.96951e-06
-4.32064e-05
2.14067e-06
-4.46214e-05
2.22821e-06
-4.60836e-05
2.28048e-06
-4.75419e-05
2.24209e-06
-4.89352e-05
2.10017e-06
-5.01918e-05
1.83864e-06
-5.12297e-05
1.44277e-06
-5.19392e-05
8.68793e-07
-5.21039e-05
-4.90567e-08
-5.11682e-05
-1.8478e-06
-4.84024e-05
-4.77521e-06
-4.49732e-05
-5.80884e-06
-4.25713e-05
-4.17331e-06
-3.91801e-05
-5.73708e-06
-3.16377e-05
-1.22153e-05
-1.77244e-05
-2.20483e-05
5.19245e-06
-3.58025e-05
4.15024e-05
-5.61414e-05
9.76471e-05
-8.61477e-05
0.000181091
-0.000127356
0.000300632
-0.000181851
0.000465534
-0.000250487
0.000684016
-0.000332045
0.000962009
-0.000423515
0.00130286
-0.000521459
0.00170819
-0.000623632
0.00217979
-0.000730735
0.00272117
-0.000846264
0.00333843
-0.000975556
0.00404051
-0.00112454
0.00483878
-0.00129839
0.00574771
-0.00150391
0.00678091
-0.0017338
0.00796167
-0.00202431
0.00899085
-0.00181088
0.00820301
0.00154182
0.00720371
0.00175422
0.00628726
0.00155185
0.0054535
0.00133221
0.0047018
0.00115554
0.00403392
0.00102715
0.00345174
0.000918673
0.00294318
0.000814514
0.00249058
0.000719386
0.00208428
0.000634723
0.00172103
0.000559719
0.00140111
0.000489433
0.00112732
0.000418328
0.000899675
0.000348616
0.000713589
0.000289463
0.000566926
0.000230893
0.000456309
0.000171001
0.000372548
0.00012729
0.000306687
9.97578e-05
0.000253042
8.17759e-05
0.000210781
6.43661e-05
0.00017896
4.81044e-05
0.000154064
3.75819e-05
0.000133537
3.11202e-05
0.000116113
2.66161e-05
0.000101825
2.19534e-05
9.0111e-05
1.8072e-05
8.03146e-05
1.52132e-05
7.15737e-05
1.36921e-05
6.37809e-05
1.23022e-05
5.72418e-05
1.03844e-05
5.17378e-05
8.76505e-06
4.67918e-05
7.93736e-06
4.22141e-05
7.37502e-06
3.82138e-05
6.48735e-06
3.47308e-05
5.65917e-06
3.16918e-05
4.96031e-06
2.8991e-05
4.42426e-06
2.64556e-05
4.1689e-06
2.40895e-05
3.90344e-06
2.19502e-05
3.53967e-06
1.9931e-05
3.34987e-06
1.79145e-05
3.35265e-06
1.58121e-05
3.49936e-06
1.35397e-05
3.78244e-06
1.10136e-05
4.20015e-06
8.18017e-06
4.69604e-06
5.10331e-06
5.07843e-06
2.11139e-06
4.91122e-06
-4.92011e-07
4.23915e-06
-2.44302e-06
3.14566e-06
-3.66591e-06
1.94663e-06
-4.52251e-06
1.34468e-06
-5.29045e-06
1.18682e-06
-5.95251e-06
1.00956e-06
-6.26449e-06
4.30901e-07
-6.24619e-06
-1.21638e-07
-7.00618e-06
1.05832e-06
-1.07063e-05
5.58252e-06
-1.96962e-05
1.36665e-05
-3.63304e-05
2.54221e-05
-5.54753e-05
2.87399e-05
-6.33358e-05
1.31343e-05
0.000175718
-0.000538387
0.000458092
0.0220843
0.000517884
0.0375867
0.000523689
0.052477
0.000513121
0.0650506
0.00049687
0.0741467
0.000480681
0.0811046
0.000466913
0.0885921
0.000456083
0.0991684
0.000447902
0.115085
0.000441825
0.138451
0.000437271
0.171472
0.000433776
0.216775
0.000431039
0.277745
0.000428872
0.358827
0.000427148
0.465772
0.000425761
0.605866
0.000424614
0.788167
0.000423625
1.02379
0.000422736
1.32633
0.000421944
1.71241
0.000421314
2.20259
0.00042091
2.82239
0.000420696
3.60292
0.000420527
4.5813
0.00042027
5.80216
0.000419908
7.32066
0.000419517
9.20621
0.000419186
11.5458
0.000418927
14.4475
0.000418761
18.0445
0.000418655
22.5009
0.000418585
28.0191
0.00041853
34.8485
0.000418479
43.2976
0.000418426
53.7475
0.000418379
66.6723
0.000418345
82.6607
0.000418315
102.441
0.000418291
126.911
0.000418272
157.18
0.000418258
194.614
0.000418247
240.904
0.00041824
298.144
0.000418235
368.929
0.000418232
456.468
0.000418232
564.726
0.000418237
698.591
864.141
-0.000550436
-864.141
-0.000550431
-698.591
-0.000550434
-564.726
-0.000550439
-456.468
-0.000550449
-368.929
-0.000550463
-298.144
-0.000550482
-240.904
-0.000550507
-194.614
-0.000550539
-157.18
-0.00055058
-126.911
-0.000550629
-102.441
-0.000550687
-82.6607
-0.000550766
-66.6723
-0.000550855
-53.7475
-0.000550948
-43.2976
-0.000551052
-34.8485
-0.000551184
-28.0191
-0.000551371
-22.5009
-0.000551649
-18.0445
-0.000552053
-14.4475
-0.000552591
-11.5458
-0.000553218
-9.20621
-0.000553833
-7.32066
-0.000554344
-5.80216
-0.000554779
-4.5813
-0.000555322
-3.60292
-0.000556177
-2.82239
-0.000557405
-2.20258
-0.00055894
-1.71241
-0.000560719
-1.32633
-0.000562768
-1.02379
-0.000565196
-0.788163
-0.000568151
-0.605861
-0.000571804
-0.465765
-0.000576352
-0.358819
-0.000582029
-0.277734
-0.00058916
-0.216761
-0.00059824
-0.171453
-0.000610009
-0.138424
-0.000625382
-0.115047
-0.000645315
-0.0991159
-0.000670446
-0.088524
-0.000700383
-0.0810247
-0.000732109
-0.0740705
-0.000757402
-0.0650148
-0.000760437
-0.0525473
-0.000701381
-0.0379537
-0.000456157
-0.023509
-0.000198894
-0.000724841
-0.000169002
-4.19092e-05
-0.000144495
-3.85014e-05
-0.000128153
-2.52512e-05
-0.000116508
-1.77093e-05
-0.000107615
-1.33969e-05
-0.000100407
-1.08233e-05
-9.45275e-05
-8.80601e-06
-8.99068e-05
-6.85392e-06
-8.62133e-05
-5.42939e-06
-8.32285e-05
-4.35505e-06
-8.08216e-05
-3.47524e-06
-7.8873e-05
-2.78518e-06
-7.72933e-05
-2.23395e-06
-7.60226e-05
-1.77362e-06
-7.50243e-05
-1.36564e-06
-7.42803e-05
-9.78581e-07
-7.37829e-05
-5.94002e-07
-7.35352e-05
-2.04043e-07
-7.35451e-05
2.1585e-07
-7.38188e-05
6.47388e-07
-7.4365e-05
1.09942e-06
-7.51981e-05
1.57942e-06
-7.63334e-05
2.08969e-06
-7.77809e-05
2.61705e-06
-7.95413e-05
3.14488e-06
-8.16058e-05
3.65371e-06
-8.39463e-05
4.1082e-06
-8.65986e-05
4.62145e-06
-8.95307e-05
5.07308e-06
-9.26577e-05
5.3544e-06
-9.59388e-05
5.56135e-06
-9.9277e-05
5.58015e-06
-0.000102555
5.37751e-06
-0.00010563
4.9136e-06
-0.000108335
4.14835e-06
-0.000110434
2.96798e-06
-0.000111451
9.67401e-07
-0.000110142
-3.15746e-06
-0.000104799
-1.01179e-05
-9.78544e-05
-1.2753e-05
-9.31151e-05
-8.91242e-06
-8.61922e-05
-1.266e-05
-6.99853e-05
-2.84222e-05
-3.95176e-05
-5.25161e-05
1.09955e-05
-8.63154e-05
9.08185e-05
-0.000135964
0.000212939
-0.000208268
0.000390936
-0.000305353
0.000638893
-0.00042981
0.000968894
-0.000580486
0.00138871
-0.000751863
0.00190162
-0.000936418
0.00250817
-0.00112801
0.00320853
-0.001324
0.00400484
-0.00152704
0.00490282
-0.00174425
0.00591257
-0.00198531
0.00704886
-0.00226083
0.00833102
-0.00258055
0.00978305
-0.00295593
0.0114344
-0.0033852
0.0133129
-0.00390279
0.0144718
-0.00296975
0.0138106
0.00220302
0.0123152
0.00324964
0.0109833
0.00288375
0.00977744
0.00253803
0.00867071
0.00226228
0.00763827
0.00205959
0.0066697
0.00188724
0.00576422
0.00172
0.00492466
0.00155894
0.0041526
0.00140678
0.00344873
0.00126359
0.00281815
0.00112001
0.00226998
0.000966498
0.00180966
0.00080894
0.00143952
0.000659601
0.00115281
0.000517602
0.000932357
0.000391452
0.000761337
0.00029831
0.000626788
0.000234307
0.000521334
0.00018723
0.000439919
0.000145784
0.000376466
0.000111555
0.000325324
8.87244e-05
0.000282538
7.39058e-05
0.000246169
6.29852e-05
0.000216047
5.20786e-05
0.000191085
4.3031e-05
0.000170108
3.61901e-05
0.000151422
3.23784e-05
0.000134763
2.89614e-05
0.000120709
2.44412e-05
0.000108846
2.06266e-05
9.82201e-05
1.85654e-05
8.84489e-05
1.71428e-05
7.99409e-05
1.49974e-05
7.25606e-05
1.30377e-05
6.61486e-05
1.13724e-05
6.04773e-05
1.00957e-05
5.51836e-05
9.46271e-06
5.02697e-05
8.81738e-06
4.58481e-05
7.96145e-06
4.16949e-05
7.50317e-06
3.75642e-05
7.48335e-06
3.32682e-05
7.79535e-06
2.86264e-05
8.42437e-06
2.34541e-05
9.3729e-06
1.76221e-05
1.05279e-05
1.12353e-05
1.14651e-05
4.94801e-06
1.11988e-05
-6.17263e-07
9.80448e-06
-4.87394e-06
7.40236e-06
-7.60706e-06
4.67982e-06
-9.56417e-06
3.30184e-06
-1.13508e-05
2.9721e-06
-1.29392e-05
2.59919e-06
-1.38072e-05
1.29924e-06
-1.40494e-05
1.20683e-07
-1.62483e-05
3.2573e-06
-2.54315e-05
1.47654e-05
-4.71066e-05
3.5342e-05
-8.56902e-05
6.40058e-05
-0.000129535
7.25844e-05
-0.000135051
1.86503e-05
0.000241171
-0.000914608
0.000670584
0.0216549
0.000754799
0.0375025
0.000754194
0.0524776
0.000730436
0.0650744
0.000699705
0.0741774
0.00067023
0.0811341
0.000645293
0.088617
0.000625401
0.0991883
0.000610018
0.1151
0.000598251
0.138463
0.000589166
0.171481
0.000582034
0.216782
0.000576356
0.277751
0.000571808
0.358832
0.000568154
0.465776
0.000565199
0.605869
0.00056277
0.78817
0.00056072
1.0238
0.000558941
1.32633
0.000557406
1.71241
0.000556177
2.20259
0.000555322
2.82239
0.000554779
3.60292
0.000554344
4.5813
0.000553833
5.80216
0.000553218
7.32066
0.000552591
9.20621
0.000552053
11.5458
0.000551649
14.4475
0.000551371
18.0445
0.000551184
22.5009
0.000551052
28.0191
0.000550948
34.8485
0.000550855
43.2976
0.000550765
53.7475
0.000550686
66.6723
0.000550628
82.6607
0.000550578
102.441
0.000550538
126.911
0.000550506
157.18
0.000550482
194.614
0.000550463
240.904
0.000550449
298.144
0.000550439
368.929
0.000550434
456.468
0.000550431
564.726
0.000550436
698.591
864.141
-0.000724422
-864.141
-0.000724418
-698.591
-0.000724424
-564.726
-0.000724434
-456.468
-0.00072445
-368.929
-0.000724474
-298.144
-0.000724505
-240.904
-0.000724456
-194.614
-0.000724598
-157.18
-0.000724573
-126.911
-0.000724743
-102.441
-0.000724837
-82.6607
-0.000724961
-66.6723
-0.000725106
-53.7475
-0.000725262
-43.2976
-0.000725441
-34.8485
-0.000725665
-28.0191
-0.000725974
-22.5009
-0.000726419
-18.0445
-0.000727047
-14.4475
-0.000727875
-11.5458
-0.00072885
-9.2062
-0.000729843
-7.32066
-0.000730741
-5.80216
-0.000731592
-4.5813
-0.000732645
-3.60291
-0.000734203
-2.82239
-0.000736346
-2.20258
-0.000739015
-1.7124
-0.000742156
-1.32632
-0.000745839
-1.02379
-0.000750244
-0.788159
-0.000755619
-0.605856
-0.000762251
-0.465759
-0.00077047
-0.358811
-0.000780672
-0.277724
-0.000793395
-0.216748
-0.000809412
-0.171437
-0.000829858
-0.138403
-0.000856171
-0.115021
-0.000889844
-0.0990822
-0.000932021
-0.0884819
-0.000982502
-0.0809742
-0.0010373
-0.0740157
-0.00108482
-0.0649673
-0.00110204
-0.0525301
-0.00103643
-0.0380194
-0.000764348
-0.0237811
-0.000432211
-0.00105698
-0.000366461
-0.000107658
-0.000312889
-9.20736e-05
-0.00027599
-6.21501e-05
-0.000248838
-4.48616e-05
-0.000227768
-3.44672e-05
-0.000210614
-2.79773e-05
-0.000196577
-2.28431e-05
-0.00018542
-1.80111e-05
-0.000176423
-1.44253e-05
-0.000169104
-1.1675e-05
-0.000163157
-9.42202e-06
-0.00015831
-7.63204e-06
-0.000154356
-6.18814e-06
-0.00015115
-4.97944e-06
-0.000148599
-3.9175e-06
-0.000146645
-2.9321e-06
-0.000145262
-1.97715e-06
-0.000144438
-1.02884e-06
-0.000144177
-4.54488e-08
-0.000144485
9.55441e-07
-0.000145376
1.9902e-06
-0.000146871
3.07407e-06
-0.000148995
4.2139e-06
-0.000151766
5.38741e-06
-0.000155183
6.56113e-06
-0.000159229
7.69938e-06
-0.000163856
8.73489e-06
-0.000169124
9.88907e-06
-0.000174981
1.09302e-05
-0.000181284
1.16563e-05
-0.000187967
1.22443e-05
-0.00019487
1.2482e-05
-0.000201799
1.23061e-05
-0.000208519
1.16335e-05
-0.000214741
1.03707e-05
-0.000220018
8.24483e-06
-0.00022339
4.33941e-06
-0.000222269
-4.27911e-06
-0.000212875
-1.95115e-05
-0.000199577
-2.60503e-05
-0.000190158
-1.8332e-05
-0.000175985
-2.68323e-05
-0.00014268
-6.17274e-05
-8.06605e-05
-0.000114536
2.04214e-05
-0.000187397
0.000175945
-0.000291488
0.00040554
-0.000437864
0.000725708
-0.000625521
0.00115072
-0.000854827
0.00169111
-0.00112087
0.00235399
-0.00141475
0.00314452
-0.00172695
0.00406745
-0.00205095
0.00512828
-0.00238482
0.00633492
-0.00273368
0.00769958
-0.00310891
0.00923996
-0.00352569
0.0109804
-0.00400131
0.0129525
-0.00455259
0.0151953
-0.00519872
0.01776
-0.00594989
0.0205406
-0.00668343
0.021439
-0.00386817
0.0213173
0.00232473
0.0191323
0.00543469
0.0171141
0.00490191
0.0153532
0.00429892
0.0137939
0.00382158
0.0123824
0.0034711
0.0110687
0.00320097
0.00981512
0.00297355
0.00859885
0.00277521