/*--------------------------------*- C++ -*----------------------------------*\
| =========                 |                                                 |
| \\      /  F ield         | OpenFOAM: The Open Source CFD Toolbox           |
|  \\    /   O peration     | Version:  2112                                  |
|   \\  /    A nd           | Website:  www.openfoam.com                      |
|    \\/     M anipulation  |                                                 |
\*---------------------------------------------------------------------------*/
FoamFile
{
    version     2.0;
    format      ascii;
    arch        "LSB;label=32;scalar=64";
    class       volVectorField;
    location    "1226";
    object      U;
}
// * * * * * * * * * * * * * * * * * * * * * * * * * * * * * * * * * * * * * //

dimensions      [0 1 -1 0 0 0 0];

internalField   nonuniform List<vector> 
14336
(
(50.687 0 9.02694)
(50.6852 0 9.02553)
(50.6847 0 9.02363)
(50.684 0 9.02084)
(50.6836 0 9.01724)
(50.6833 0 9.01262)
(50.6831 0 9.00663)
(50.6829 0 8.99883)
(50.6829 0 8.98882)
(50.683 -2.17208e-31 8.97633)
(50.6831 0 8.96118)
(50.6832 0 8.94305)
(50.6828 -7.9879e-31 8.92124)
(50.6839 1.22609e-30 8.89472)
(50.6827 0 8.86199)
(50.6802 2.93321e-30 8.82156)
(50.6762 0 8.77219)
(50.6725 0 8.71261)
(50.6709 0 8.64146)
(50.6743 0 8.55715)
(50.6841 -3.74666e-29 8.45774)
(50.698 0 8.34072)
(50.7075 1.30065e-28 8.20289)
(50.6988 0 8.04081)
(50.6631 5.09918e-28 7.85221)
(50.6069 0 7.6375)
(50.5485 2.09858e-27 7.3996)
(50.4978 0 7.14196)
(50.4465 0 6.86729)
(50.3772 0 6.57845)
(50.278 0 6.28027)
(50.1441 0 5.97968)
(49.9739 -1.11417e-25 5.685)
(49.7651 -1.92407e-25 5.40532)
(49.5139 3.10295e-25 5.15025)
(49.2147 0 4.93041)
(48.8617 0 4.75925)
(48.454 0 4.656)
(48.0018 -9.20988e-25 4.64941)
(47.5264 0 4.77965)
(47.0479 1.34421e-24 5.09346)
(46.5636 0 5.62716)
(46.0226 0 6.37089)
(45.2767 0 7.2035)
(43.981 0 7.81816)
(41.553 0 7.80711)
(37.2194 -3.2358e-24 6.94228)
(28.1877 0 5.17815)
(0.327194 1.92028e-19 0.0522974)
(0.396808 0 0.0535541)
(0.361926 -4.09331e-19 0.0494428)
(0.343724 -3.48753e-24 0.0471526)
(0.335824 -1.55642e-25 0.0459305)
(0.332242 5.84433e-19 0.0451611)
(0.330786 -2.54049e-28 0.0445576)
(0.329503 8.89172e-19 0.0438804)
(0.32982 0 0.0433283)
(0.331181 -6.7595e-19 0.0428282)
(0.333011 0 0.0423036)
(0.335237 -1.0475e-18 0.0417429)
(0.337679 -1.86743e-18 0.0411207)
(0.340181 -1.683e-18 0.0404149)
(0.342672 0 0.0396129)
(0.345145 -1.42252e-18 0.0387089)
(0.347656 -2.02297e-26 0.0377009)
(0.350309 1.27882e-18 0.0365859)
(0.353214 1.81707e-26 0.0353562)
(0.356519 1.23047e-18 0.0339971)
(0.360354 1.90457e-26 0.032482)
(0.364807 -1.83781e-26 0.0307693)
(0.369994 1.32968e-18 0.0288104)
(0.376018 -1.41724e-18 0.0265433)
(0.382956 -1.54078e-18 0.0238977)
(0.390814 1.70905e-18 0.0207929)
(0.399516 -1.93356e-18 0.0171409)
(0.408924 1.57541e-26 0.0128599)
(0.418704 -6.53729e-19 0.00787211)
(0.429283 1.94696e-19 0.00212442)
(0.439634 4.70021e-19 -0.0044427)
(0.449557 0 -0.0118417)
(0.458468 0 -0.0200556)
(0.465609 1.11216e-25 -0.0290178)
(0.470237 -1.22509e-25 -0.0385955)
(0.471482 1.71779e-25 -0.048592)
(0.468552 -1.91766e-25 -0.0587383)
(0.460324 0 -0.0686378)
(0.444588 1.05776e-17 -0.0775535)
(0.415565 -1.19166e-22 -0.0837176)
(0.369828 -1.01917e-24 -0.0851178)
(0.330354 -1.01448e-17 -0.0864808)
(0.300296 1.24868e-17 -0.0894593)
(0.249416 -1.52506e-17 -0.0843503)
(0.169364 4.44771e-24 -0.064995)
(0.0533423 1.09558e-17 -0.0233022)
(-0.102548 -1.27453e-17 0.0506666)
(-0.311455 1.43861e-17 0.175848)
(-0.579322 7.74556e-18 0.374894)
(-0.903494 0 0.673729)
(-1.27109 1.33881e-17 1.09926)
(-1.65279 1.11492e-23 1.67068)
(-2.00484 -5.50316e-19 2.3902)
(-2.27835 2.38625e-18 3.23653)
(-2.43283 5.56853e-18 4.16604)
(-2.4494 5.03382e-18 5.12441)
(-2.33492 0 6.06355)
(-2.11602 -1.20646e-17 6.95606)
(-1.82705 1.22453e-22 7.79943)
(-1.49973 2.96383e-18 8.61283)
(-1.15684 -1.99577e-18 9.42496)
(-0.813181 1.31993e-18 10.28)
(-0.467237 3.43859e-18 11.0864)
(-0.145644 -2.7518e-19 12.372)
(0.282959 0 11.8221)
(0.596999 -3.89438e-18 10.7943)
(0.939375 -1.64954e-18 10.1686)
(1.33642 2.80282e-18 10.006)
(1.79945 -4.76208e-18 9.99189)
(2.2801 2.53208e-22 9.72358)
(2.68217 1.39072e-17 8.99876)
(2.97748 0 8.02921)
(3.18806 -2.02366e-17 7.0391)
(3.33266 -2.83045e-24 6.11691)
(3.40164 4.33362e-22 5.25376)
(3.37391 4.70446e-17 4.42926)
(3.24889 -3.83537e-17 3.65659)
(3.03165 -1.13224e-21 2.94724)
(2.76261 4.94626e-17 2.33444)
(2.40503 3.93076e-17 1.77833)
(2.1146 6.22311e-17 1.3725)
(1.89796 0 1.0825)
(1.7188 3.88981e-17 0.862148)
(1.54211 -1.53709e-23 0.68123)
(1.36828 -1.12397e-23 0.53271)
(1.23861 5.44102e-22 0.423957)
(1.13201 -1.13865e-23 0.339633)
(1.0414 3.13477e-24 0.272763)
(0.950024 4.06448e-17 0.216172)
(0.868205 3.30116e-17 0.170291)
(0.796181 -1.64792e-22 0.133173)
(0.733056 2.21173e-17 0.103039)
(0.674789 -5.68398e-25 0.078132)
(0.614603 1.51408e-17 0.0570335)
(0.56172 -3.93804e-25 0.0400607)
(0.51533 0 0.0264156)
(0.474718 4.47021e-18 0.0154472)
(0.43299 6.61027e-26 0.00658022)
(0.395097 -1.46632e-24 -0.000326469)
(0.361201 2.18366e-26 -0.00562473)
(0.330864 -6.80499e-26 -0.0096099)
(0.303766 6.75875e-24 -0.0125331)
(0.278604 -7.31347e-18 -0.0145645)
(0.253558 0 -0.0157641)
(0.230846 -5.67532e-18 -0.0164067)
(0.209644 -5.02142e-18 -0.0165812)
(0.188789 4.44063e-18 -0.0163108)
(0.167223 -6.33107e-26 -0.0155842)
(0.144377 0 -0.0144047)
(0.119362 -3.77238e-26 -0.0127113)
(0.0917095 4.03075e-26 -0.0104788)
(0.0613118 0 -0.00766949)
(0.030163 -1.1504e-18 -0.00447242)
(0.00324585 -1.64966e-26 -0.00142136)
(-0.0181933 1.24685e-23 0.00128514)
(-0.0311291 0 0.00310259)
(-0.0380128 -4.51704e-19 0.00416962)
(-0.0434643 0 0.00503046)
(-0.0479687 -4.29956e-19 0.00576728)
(-0.0506989 -3.08302e-26 0.00626886)
(-0.048612 6.673e-19 0.00619228)
(-0.0445838 -3.95018e-19 0.00604728)
(-0.0508846 4.36881e-19 0.00750494)
(-0.0825783 -5.69789e-24 0.0123811)
(-0.148739 6.26952e-24 0.0216216)
(-0.265848 2.28153e-19 0.0351197)
(-0.325523 1.80977e-25 0.0452695)
(-0.378169 -1.91515e-19 0.0439227)
(28.0986 5.3591e-26 5.16393)
(37.2068 0 6.93852)
(41.5432 0 7.80581)
(43.9746 1.73795e-24 7.81772)
(45.2736 0 7.20333)
(46.0215 0 6.3707)
(46.5634 0 5.6269)
(47.0479 0 5.09317)
(47.5266 -1.14436e-24 4.77936)
(48.0019 9.27952e-25 4.64916)
(48.4541 0 4.65578)
(48.8618 -6.01028e-25 4.75908)
(49.2147 0 4.93027)
(49.5139 0 5.15015)
(49.7651 0 5.40526)
(49.9739 1.11433e-25 5.68497)
(50.1441 0 5.97966)
(50.278 0 6.28026)
(50.3773 0 6.57844)
(50.4465 0 6.86729)
(50.4979 4.25328e-27 7.14196)
(50.5485 0 7.3996)
(50.6069 -1.03297e-27 7.6375)
(50.6631 5.10023e-28 7.85221)
(50.6988 0 8.04081)
(50.7075 -1.30076e-28 8.20289)
(50.698 0 8.34072)
(50.6841 0 8.45774)
(50.6743 0 8.55715)
(50.6709 0 8.64146)
(50.6725 7.51718e-30 8.71261)
(50.6762 0 8.77219)
(50.6802 0 8.82156)
(50.6827 1.87362e-30 8.86199)
(50.6839 0 8.89472)
(50.6828 0 8.92124)
(50.6832 -5.1967e-31 8.94305)
(50.6831 -3.44289e-31 8.96118)
(50.683 2.27253e-31 8.97633)
(50.6829 0 8.98882)
(50.6829 0 8.99883)
(50.6831 6.08049e-32 9.00663)
(50.6833 0 9.01262)
(50.6836 0 9.01724)
(50.684 0 9.02084)
(50.6847 0 9.02363)
(50.6852 0 9.02553)
(50.687 -1.93233e-33 9.02694)
(50.687 0 9.02694)
(50.6852 0 9.02553)
(50.6847 0 9.02363)
(50.684 0 9.02084)
(50.6836 0 9.01724)
(50.6833 0 9.01262)
(50.6831 0 9.00663)
(50.6829 -8.71723e-31 8.99883)
(50.6829 0 8.98882)
(50.683 -1.81786e-30 8.97633)
(50.6831 0 8.96118)
(50.6832 5.08121e-30 8.94305)
(50.6828 9.78449e-31 8.92124)
(50.6839 1.05617e-29 8.89472)
(50.6827 0 8.86199)
(50.6802 -3.59298e-30 8.82156)
(50.6762 4.55762e-29 8.77219)
(50.6725 0 8.71261)
(50.6709 0 8.64146)
(50.6743 2.08204e-28 8.55715)
(50.6841 -3.21228e-28 8.45774)
(50.698 0 8.34072)
(50.7075 1.11434e-27 8.20289)
(50.6988 0 8.04081)
(50.6631 4.36279e-27 7.85221)
(50.6069 3.52659e-32 7.6375)
(50.5485 -2.55887e-27 7.39959)
(50.4978 0 7.14196)
(50.4465 0 6.86729)
(50.3772 0 6.57845)
(50.278 0 6.28027)
(50.1441 0 5.97969)
(49.9739 1.33926e-25 5.68502)
(49.765 2.30914e-25 5.40535)
(49.5138 -3.72488e-25 5.15031)
(49.2146 4.37857e-24 4.93049)
(48.8615 5.81064e-24 4.75937)
(48.4537 0 4.65616)
(48.0014 1.12177e-24 4.64963)
(47.526 1.1079e-23 4.77993)
(47.0473 -1.65588e-24 5.09382)
(46.5633 0 5.62761)
(46.0231 0 6.37143)
(45.2788 1.73058e-23 7.20415)
(43.9855 1.80672e-23 7.81908)
(41.5579 2.01385e-23 7.80878)
(37.2181 4.0555e-24 6.94677)
(28.2544 -5.91773e-23 5.19627)
(1.25974 4.19625e-19 0.201583)
(1.41122 4.5723e-19 0.192223)
(1.27922 8.75482e-19 0.17568)
(1.20724 -7.85962e-19 0.166034)
(1.1722 6.92374e-19 0.160526)
(1.15319 -1.20461e-18 0.156829)
(1.14232 -1.04204e-18 0.153886)
(1.13276 -1.79921e-18 0.150832)
(1.12933 0 0.148329)
(1.13002 -1.69537e-24 0.146104)
(1.13279 0 0.143879)
(1.13733 -1.23013e-25 0.141605)
(1.14297 1.83392e-18 0.139183)
(1.14916 3.29295e-18 0.136533)
(1.1556 0 0.133605)
(1.16225 0 0.130374)
(1.16927 0 0.126829)
(1.17697 -2.47606e-18 0.122956)
(1.18571 0 0.118723)
(1.19597 -2.37536e-18 0.11408)
(1.20816 1.42794e-25 0.108934)
(1.22257 2.45078e-18 0.103144)
(1.23956 -1.49792e-24 0.0965407)
(1.25949 2.72875e-18 0.0889169)
(1.28259 -4.6398e-26 0.0800311)
(1.3089 2.38369e-24 0.0696081)
(1.33815 0 0.0573513)
(1.3699 2.14872e-18 0.0429757)
(1.40305 1.26148e-18 0.0262128)
(1.43903 1.51758e-26 0.00687299)
(1.47443 -9.09484e-19 -0.0152519)
(1.50861 1.41812e-25 -0.0402257)
(1.53961 -1.54123e-25 -0.0680107)
(1.56491 -4.33305e-25 -0.0983955)
(1.58202 -8.49639e-18 -0.130974)
(1.58799 -6.00643e-25 -0.165097)
(1.58013 0 -0.199891)
(1.55457 0 -0.234015)
(1.5037 2.10529e-17 -0.264996)
(1.40762 -3.99052e-22 -0.286761)
(1.25417 0 -0.292339)
(1.122 2.0641e-17 -0.297841)
(1.02258 4.18204e-22 -0.309022)
(0.851705 -3.1657e-17 -0.292283)
(0.580142 3.87086e-17 -0.225929)
(0.1834 -2.33221e-17 -0.0811292)
(-0.353705 2.7529e-17 0.178019)
(-1.07886 0 0.619876)
(-2.01558 -3.45592e-17 1.3274)
(-3.15862 -1.75474e-17 2.39755)
(-4.46753 -5.49486e-21 3.93424)
(-5.84484 5.24505e-23 6.019)
(-7.14121 8.66536e-23 8.67881)
(-8.18586 -5.75854e-18 11.8621)
(-8.83199 -2.70263e-17 15.4396)
(-9.00253 -1.49695e-21 19.2401)
(-8.70615 1.03579e-21 23.1062)
(-8.02016 2.75434e-17 26.9434)
(-7.05212 2.0917e-21 30.7381)
(-5.90591 -5.7056e-18 34.5501)
(-4.65918 3.30593e-18 38.4705)
(-3.36685 -1.78827e-18 42.6455)
(-2.02383 -9.11377e-19 46.7405)
(-0.766997 -2.27173e-19 52.2073)
(0.820781 -9.40573e-22 50.6356)
(2.2827 1.03934e-18 46.2666)
(3.74857 2.2071e-18 42.715)
(5.39395 4.28159e-18 41.6608)
(7.2418 2.95022e-21 41.2546)
(9.11576 3.61966e-21 39.7235)
(10.6683 -3.20756e-21 36.3932)
(11.7951 3.04615e-21 32.1733)
(12.5773 -5.32404e-21 27.9607)
(13.0864 7.55651e-17 24.0878)
(13.2842 -6.35573e-17 20.5019)
(13.09 -1.04747e-16 17.1153)
(12.5078 8.4885e-17 13.9784)
(11.5693 1.36317e-16 11.1382)
(10.4399 -2.16738e-16 8.71686)
(9.00193 -1.71323e-16 6.56323)
(7.83226 0 5.00543)
(6.95129 -1.93136e-22 3.9017)
(6.22607 -8.21586e-17 3.0736)
(5.53069 1.28803e-16 2.4051)
(4.86439 -1.01319e-16 1.86463)
(4.36742 1.91961e-21 1.47259)
(3.96226 0 1.17179)
(3.62161 0 0.935563)
(3.28585 -1.62701e-16 0.737679)
(2.98877 8.04424e-22 0.578514)
(2.72974 -5.53693e-22 0.450615)
(2.50457 0 0.347377)
(2.2987 -2.0522e-24 0.262508)
(2.08861 1.48352e-25 0.190953)
(1.90498 1.53419e-24 0.13361)
(1.74462 5.88448e-25 0.0876506)
(1.60477 -5.41454e-25 0.0508357)
(1.46203 2.61446e-26 0.0211534)
(1.33285 1.56455e-18 -0.00191699)
(1.21762 5.369e-18 -0.0195587)
(1.11474 9.27125e-18 -0.0327947)
(1.02305 -1.6111e-17 -0.0424798)
(0.938118 2.81675e-17 -0.0491823)
(0.853786 -1.9621e-25 -0.0531104)
(0.777453 1.09275e-17 -0.0551849)
(0.706329 1.93424e-17 -0.0557062)
(0.636489 -1.81816e-23 -0.0547504)
(0.564364 -4.49267e-25 -0.0522772)
(0.488022 2.15028e-25 -0.0482806)
(0.40444 -1.45852e-25 -0.0425731)
(0.311974 1.56099e-25 -0.035034)
(0.210132 0 -0.0255658)
(0.105411 0 -0.0147842)
(0.0143738 -1.02124e-18 -0.00450291)
(-0.0587402 -7.53174e-20 0.0045983)
(-0.103328 3.87273e-26 0.0107144)
(-0.127344 8.91221e-19 0.0143225)
(-0.146475 0 0.0172697)
(-0.16247 1.71541e-18 0.0198206)
(-0.17252 0 0.0215925)
(-0.166337 -1.35046e-18 0.0213788)
(-0.154082 8.06404e-19 0.0208736)
(-0.178319 -9.00653e-19 0.0258818)
(-0.291502 -1.95178e-23 0.0429591)
(-0.526263 4.63544e-19 0.0758442)
(-0.936076 6.32237e-23 0.125338)
(-1.16084 7.41446e-25 0.16203)
(-1.28614 4.18512e-19 0.160232)
(27.9167 0 5.14129)
(37.1717 0 6.93201)
(41.5231 0 7.80351)
(43.9629 -2.04466e-23 7.81712)
(45.2681 -1.74155e-23 7.20334)
(46.0193 0 6.37077)
(46.5626 -1.53819e-23 5.62685)
(47.0476 0 5.09301)
(47.5263 -1.00169e-23 4.77915)
(48.0017 -1.14941e-24 4.64895)
(48.4539 0 4.6556)
(48.8616 7.29496e-25 4.75892)
(49.2147 0 4.93014)
(49.5139 -2.9813e-24 5.15006)
(49.7651 0 5.40519)
(49.9739 -1.33984e-25 5.68492)
(50.1441 -5.92894e-25 5.97963)
(50.278 3.1632e-25 6.28024)
(50.3773 0 6.57843)
(50.4465 0 6.86728)
(50.4979 -5.17966e-27 7.14196)
(50.5485 0 7.39959)
(50.6069 1.26172e-27 7.6375)
(50.6631 -5.61204e-27 7.85221)
(50.6988 0 8.04081)
(50.7075 1.59222e-28 8.20289)
(50.698 0 8.34072)
(50.6841 0 8.45774)
(50.6743 7.26368e-34 8.55715)
(50.6709 -5.25649e-34 8.64146)
(50.6725 -9.20822e-30 8.71261)
(50.6762 0 8.77219)
(50.6802 0 8.82156)
(50.6827 1.60242e-29 8.86199)
(50.6839 0 8.89472)
(50.6828 0 8.92124)
(50.6832 -4.45885e-30 8.94305)
(50.6831 3.82852e-30 8.96118)
(50.6829 1.99282e-30 8.97633)
(50.6829 0 8.98882)
(50.6829 0 8.99883)
(50.6831 5.2654e-31 9.00663)
(50.6833 0 9.01262)
(50.6836 0 9.01724)
(50.684 -1.36921e-31 9.02084)
(50.6847 0 9.02363)
(50.6852 0 9.02553)
(50.687 2.36634e-33 9.02694)
(50.687 4.87323e-32 9.02694)
(50.6852 0 9.02553)
(50.6847 0 9.02363)
(50.684 0 9.02084)
(50.6836 6.63013e-31 9.01724)
(50.6833 0 9.01262)
(50.6831 0 9.00663)
(50.6829 1.1449e-30 8.99883)
(50.6829 0 8.98882)
(50.683 8.12447e-30 8.97633)
(50.6831 0 8.96118)
(50.6832 -6.67425e-30 8.94305)
(50.6829 0 8.92124)
(50.6839 -1.58454e-29 8.89472)
(50.6827 0 8.86199)
(50.6802 0 8.82156)
(50.6762 -5.98649e-29 8.77219)
(50.6725 0 8.71261)
(50.6709 -3.20823e-28 8.64146)
(50.6743 -2.73395e-28 8.55715)
(50.6841 4.81923e-28 8.45774)
(50.698 0 8.34072)
(50.7075 -1.66996e-27 8.20289)
(50.6988 -6.53099e-27 8.04081)
(50.6631 -6.52258e-27 7.85222)
(50.6069 0 7.6375)
(50.5485 0 7.3996)
(50.4978 -1.07554e-25 7.14196)
(50.4465 0 6.8673)
(50.3772 0 6.57846)
(50.2779 0 6.28028)
(50.1441 0 5.97971)
(49.9738 0 5.68504)
(49.765 -4.6784e-24 5.40539)
(49.5137 0 5.15035)
(49.2144 -5.56625e-24 4.93055)
(48.8613 -7.44311e-24 4.75945)
(48.4535 0 4.65626)
(48.0011 0 4.64974)
(47.5255 -1.43954e-23 4.78005)
(47.0468 3.47571e-23 5.09394)
(46.5631 -4.00292e-23 5.62772)
(46.0242 -4.44765e-23 6.37159)
(45.2828 -2.39658e-23 7.20462)
(43.9944 -2.53833e-23 7.82058)
(41.5712 -2.83665e-23 7.8128)
(37.2326 -8.52308e-23 6.95756)
(28.4113 6.02558e-23 5.23275)
(2.8273 -1.2702e-18 0.44963)
(2.96456 -1.39926e-18 0.410074)
(2.66843 0 0.36962)
(2.49951 0 0.345168)
(2.40854 -2.03646e-18 0.3305)
(2.35277 -1.75177e-18 0.320212)
(2.31553 1.50002e-18 0.311971)
(2.28277 -2.56637e-18 0.303902)
(2.26402 -2.1997e-18 0.297268)
(2.25497 1.89364e-18 0.29146)
(2.25134 0 0.28588)
(2.25234 0 0.280392)
(2.25653 -2.53218e-18 0.274778)
(2.26268 -2.2636e-18 0.268856)
(2.27013 -4.89936e-25 0.262513)
(2.2787 -3.77706e-18 0.255683)
(2.28863 0 0.248332)
(2.30047 3.36382e-18 0.240423)
(2.31486 1.90512e-25 0.231882)
(2.33267 0 0.222604)
(2.35467 0 0.212399)
(2.38137 -3.3111e-18 0.200984)
(2.41346 -3.35883e-25 0.188022)
(2.4516 0 0.173102)
(2.49625 0 0.155743)
(2.54748 -8.88593e-18 0.135392)
(2.60479 0 0.111465)
(2.66734 -5.80879e-18 0.0833793)
(2.73301 -3.41391e-18 0.050586)
(2.80467 7.3595e-26 0.0126883)
(2.87572 -9.6069e-26 -0.0307557)
(2.94494 -3.02458e-18 -0.0799277)
(3.0086 0 -0.134807)
(3.0618 -9.31399e-18 -0.195039)
(3.09966 1.1662e-17 -0.259916)
(3.11636 0 -0.328234)
(3.10651 1.84823e-17 -0.398346)
(3.06228 -2.33395e-17 -0.467656)
(2.96828 8.40303e-23 -0.531296)
(2.7842 3.72708e-17 -0.577048)
(2.48446 -4.70436e-17 -0.590678)
(2.22653 -2.72535e-23 -0.604227)
(2.03529 -3.71755e-17 -0.629374)
(1.70031 4.6395e-17 -0.597628)
(1.1619 -5.74253e-17 -0.463678)
(0.369305 3.50649e-17 -0.166768)
(-0.709721 -3.17266e-22 0.369361)
(-2.17167 -4.87211e-17 1.28896)
(-4.0616 2.69755e-17 2.76695)
(-6.36348 2.76043e-17 5.00663)
(-8.98536 -2.43437e-17 8.22269)
(-11.7201 4.04853e-22 12.5782)
(-14.2621 -3.53421e-22 18.1172)
(-16.2755 8.28708e-18 24.7184)
(-17.4881 1.79005e-17 32.102)
(-17.7726 0 39.9036)
(-17.1645 5.28449e-21 47.7749)
(-15.8172 -1.15689e-17 55.4608)
(-13.9282 -1.23072e-20 62.8116)
(-11.6839 3.20509e-18 69.7623)
(-9.22731 1.53076e-18 76.2627)
(-6.68515 5.43085e-21 82.3635)
(-4.0694 -9.69014e-19 87.6385)
(-1.76156 1.4814e-19 93.4827)
(0.730053 1.53537e-19 93.6397)
(3.28116 -3.60477e-19 90.4191)
(6.11672 3.28461e-21 86.2031)
(9.27724 -4.586e-21 81.9563)
(12.6825 7.57485e-21 78.0469)
(16.2704 -8.82778e-21 74.4541)
(19.7902 8.83775e-21 70.0837)
(22.9695 0 64.513)
(25.5802 -3.78503e-17 58.017)
(27.4425 -7.16507e-17 51.0517)
(28.3797 2.46192e-20 43.9)
(28.2591 1.12558e-16 36.7763)
(27.1312 -2.94319e-21 30.0049)
(25.2498 -2.34962e-21 23.9388)
(22.8524 1.29635e-16 18.7165)
(19.7539 1.086e-16 14.0769)
(17.1142 5.1071e-23 10.6645)
(15.0484 1.08587e-21 8.22931)
(13.3284 1.12297e-16 6.41173)
(11.7142 -1.78242e-16 4.96638)
(10.2026 2.8332e-16 3.81488)
(9.07153 -1.12256e-16 2.98666)
(8.15598 1.70605e-22 2.358)
(7.39468 -1.41763e-16 1.86955)
(6.66301 1.13426e-16 1.46505)
(6.0244 3.51055e-22 1.14266)
(5.47372 -2.20176e-22 0.885629)
(4.99966 6.00603e-17 0.679594)
(4.57115 0 0.511291)
(4.14025 0 0.370179)
(3.76605 -3.36123e-17 0.257628)
(3.44112 0 0.167786)
(3.15916 -3.3625e-25 0.096118)
(2.87375 3.82589e-25 0.0385399)
(2.61661 -3.07495e-25 -0.00607497)
(2.38806 -1.4529e-17 -0.0400589)
(2.18467 -2.50638e-17 -0.0654527)
(2.00395 0 -0.0839684)
(1.83705 -3.80294e-17 -0.096707)
(1.67189 0 -0.104087)
(1.52275 0 -0.107892)
(1.38412 -3.34349e-24 -0.108719)
(1.24829 -1.15633e-17 -0.106705)
(1.10826 0 -0.101759)
(0.960182 0 -0.0938458)
(0.798058 -3.95664e-25 -0.0826076)
(0.618506 4.24278e-25 -0.0677548)
(0.42024 0 -0.0491318)
(0.215468 0 -0.0279377)
(0.036146 1.39939e-18 -0.00776921)
(-0.109342 5.18253e-20 0.00999245)
(-0.199222 -1.0698e-25 0.0219206)
(-0.24836 1.20815e-25 0.0290051)
(-0.287818 0 0.0348951)
(-0.321298 4.7781e-24 0.0400715)
(-0.343222 0 0.04376)
(-0.333277 1.92792e-18 0.0434281)
(-0.312641 -1.09163e-24 0.0422707)
(-0.368172 1.31113e-18 0.0521212)
(-0.607404 -2.99369e-24 0.0871264)
(-1.09955 0 0.156295)
(-1.94202 -1.47334e-18 0.265769)
(-2.43972 7.28372e-19 0.342581)
(-2.5964 6.30216e-19 0.316508)
(27.6503 6.1078e-25 5.10675)
(37.1284 1.13962e-22 6.9227)
(41.4981 5.98267e-23 7.79994)
(43.9479 2.56833e-23 7.81544)
(45.2611 2.42544e-23 7.20248)
(46.0165 4.56901e-23 6.37026)
(46.5617 6.28556e-23 5.62651)
(47.0473 -3.69251e-23 5.09276)
(47.5262 1.52761e-23 4.77897)
(48.0015 0 4.64881)
(48.4537 -1.91271e-23 4.6555)
(48.8615 0 4.75885)
(49.2146 0 4.9301)
(49.5138 3.77534e-24 5.15003)
(49.7651 0 5.40517)
(49.9739 0 5.68491)
(50.1441 7.567e-25 5.97963)
(50.278 -4.05724e-25 6.28024)
(50.3773 0 6.57843)
(50.4465 0 6.86728)
(50.4979 1.07684e-25 7.14196)
(50.5485 0 7.39959)
(50.6069 0 7.6375)
(50.6631 6.52838e-27 7.85221)
(50.6988 6.53437e-27 8.04081)
(50.7075 0 8.20289)
(50.698 1.76193e-27 8.34072)
(50.6841 0 8.45774)
(50.6743 0 8.55715)
(50.6709 3.20341e-28 8.64146)
(50.6725 0 8.71261)
(50.6762 0 8.77219)
(50.6802 0 8.82156)
(50.6827 -7.21073e-29 8.86199)
(50.6839 0 8.89472)
(50.6828 0 8.92124)
(50.6832 2.00823e-29 8.94305)
(50.6831 -4.47429e-30 8.96118)
(50.6829 3.06951e-30 8.97633)
(50.6829 0 8.98882)
(50.6829 0 8.99883)
(50.6831 -7.89246e-31 9.00663)
(50.6833 9.70988e-31 9.01262)
(50.6836 5.91427e-31 9.01724)
(50.684 1.79794e-31 9.02084)
(50.6847 0 9.02363)
(50.6852 0 9.02553)
(50.687 -5.01476e-32 9.02694)
(50.687 -6.39489e-32 9.02694)
(50.6852 -2.43193e-31 9.02553)
(50.6847 0 9.02363)
(50.684 0 9.02084)
(50.6836 -8.70121e-31 9.01724)
(50.6833 -2.66896e-30 9.01262)
(50.6831 0 9.00663)
(50.683 0 8.99883)
(50.6829 0 8.98882)
(50.683 6.90245e-30 8.97633)
(50.6831 0 8.96118)
(50.6833 0 8.94305)
(50.6829 0 8.92124)
(50.6839 0 8.89472)
(50.6827 0 8.86199)
(50.6802 -1.98583e-28 8.82156)
(50.6762 3.14425e-28 8.77219)
(50.6725 0 8.71261)
(50.6709 4.21004e-28 8.64146)
(50.6743 0 8.55715)
(50.6841 2.52864e-27 8.45774)
(50.698 4.6193e-27 8.34072)
(50.7075 -8.74714e-27 8.20289)
(50.6988 8.53921e-27 8.04081)
(50.6631 -3.40502e-26 7.85222)
(50.6069 6.85858e-26 7.63751)
(50.5484 0 7.3996)
(50.4978 4.16965e-25 7.14197)
(50.4465 0 6.8673)
(50.3772 1.07967e-24 6.57846)
(50.2779 -2.06024e-24 6.28029)
(50.144 3.81827e-24 5.97972)
(49.9737 -6.83178e-24 5.68507)
(49.7649 -5.84662e-24 5.40542)
(49.5136 1.88391e-23 5.1504)
(49.2142 0 4.93062)
(48.8611 3.76397e-23 4.75955)
(48.4532 -4.76302e-23 4.65639)
(48.0007 -5.93243e-23 4.6499)
(47.5249 0 4.78025)
(47.0463 -4.48999e-23 5.09417)
(46.5632 5.25338e-23 5.628)
(46.0261 5.94505e-23 6.37202)
(45.2894 0 7.20554)
(44.0093 2.31033e-28 7.82286)
(41.5958 -8.25017e-28 7.81842)
(37.2672 1.07052e-22 6.97229)
(28.6667 4.28484e-27 5.28101)
(5.4061 -8.77909e-19 0.853014)
(5.27255 2.0585e-18 0.734818)
(4.72478 -6.9003e-24 0.657311)
(4.39967 6.58491e-24 0.608834)
(4.21079 1.46721e-18 0.578394)
(4.08621 2.50466e-18 0.556349)
(3.9965 2.12879e-18 0.538479)
(3.91736 3.61709e-18 0.521457)
(3.86493 3.08049e-18 0.507382)
(3.83147 0 0.495141)
(3.80937 0 0.483656)
(3.79707 3.95224e-18 0.472654)
(3.79187 3.4753e-18 0.461728)
(3.79153 -3.0952e-18 0.450537)
(3.79478 5.59318e-18 0.438863)
(3.80115 5.13369e-18 0.426573)
(3.81093 -5.64624e-25 0.413587)
(3.8249 0 0.399823)
(3.844 4.403e-18 0.385143)
(3.86961 0 0.369354)
(3.90289 -4.35586e-18 0.35213)
(3.94463 0 0.332986)
(3.99592 -4.65263e-18 0.311351)
(4.0578 5.92727e-25 0.286532)
(4.13102 -6.44669e-25 0.257716)
(4.21567 5.97588e-18 0.223978)
(4.31096 -6.7693e-18 0.184322)
(4.41553 3.90987e-18 0.137762)
(4.52591 2.29974e-18 0.0833551)
(4.64694 0 0.0204063)
(4.76776 0 -0.0518729)
(4.88643 -2.77667e-24 -0.133846)
(4.99685 1.01372e-17 -0.225552)
(5.09093 -8.93874e-24 -0.326497)
(5.16049 -4.03669e-24 -0.435587)
(5.19579 4.52899e-24 -0.550926)
(5.18755 -2.53934e-17 -0.669819)
(5.12226 3.22365e-17 -0.787987)
(4.97336 3.3843e-23 -0.897149)
(4.67135 -2.38215e-23 -0.976432)
(4.1701 -1.94197e-23 -1.001)
(3.73814 0 -1.02525)
(3.42236 5.33319e-17 -1.06983)
(2.8623 -1.24723e-22 -1.01708)
(1.95774 8.38917e-17 -0.789404)
(0.624844 -5.17476e-17 -0.283378)
(-1.1859 9.52143e-24 0.629229)
(-3.62386 1.44916e-16 2.18716)
(-6.73786 -3.97549e-17 4.66832)
(-10.461 -1.03891e-21 8.37592)
(-14.5885 3.33197e-17 13.5938)
(-18.7354 8.26719e-22 20.4729)
(-22.3935 -1.1736e-21 28.9299)
(-25.062 -8.06197e-18 38.6097)
(-26.391 1.48042e-17 48.9483)
(-26.2718 -4.17911e-21 59.3164)
(-24.8273 5.96262e-18 69.1684)
(-22.3335 6.36947e-18 78.1296)
(-19.1201 5.87757e-21 86.0045)
(-15.5019 -1.5617e-18 92.7446)
(-11.7335 -2.91195e-18 98.3757)
(-8.03889 -1.04713e-20 103.029)
(-4.47342 3.14229e-19 106.644)
(-1.52343 -4.38026e-21 109.91)
(1.59681 -2.29258e-19 111.567)
(4.74074 6.73147e-19 111.762)
(8.37687 -2.98768e-22 111.103)
(12.5771 9.36204e-19 109.402)
(17.1594 1.20911e-20 106.39)
(22.0129 9.71214e-21 102.092)
(27.038 -1.08189e-17 96.8124)
(32.0343 -1.16409e-17 90.7234)
(36.5636 2.44423e-17 83.5182)
(40.1356 -4.88853e-17 75.0946)
(42.3066 4.68131e-17 65.6758)
(42.7934 -1.05401e-20 55.7466)
(41.6145 -4.5314e-21 45.9555)
(39.1834 1.30226e-16 37.0126)
(35.8725 3.4676e-21 29.2129)
(32.0881 -9.77644e-17 22.6814)
(28.5447 1.68669e-16 17.6067)
(25.4591 8.58125e-23 13.7611)
(22.6937 -1.16006e-16 10.7814)
(20.1061 -7.66384e-22 8.41321)
(17.6454 -1.62079e-16 6.50947)
(15.7128 1.34057e-16 5.10442)
(14.1011 0 4.02413)
(12.7391 -1.11754e-22 3.18068)
(11.4388 6.67893e-23 2.48486)
(10.3049 1.07438e-22 1.93171)
(9.32839 9.70593e-17 1.49196)
(8.49012 -7.95727e-17 1.14088)
(7.73743 -1.50311e-23 0.85538)
(6.98928 1.97459e-23 0.617197)
(6.3421 4.51349e-17 0.427893)
(5.78223 3.77211e-17 0.277351)
(5.29824 -1.58496e-17 0.157662)
(4.8123 0 0.0618401)
(4.37631 0 -0.0121865)
(3.99012 9.77807e-18 -0.0684186)
(3.64757 1.68674e-17 -0.110311)
(3.34409 -2.92905e-17 -0.140773)
(3.06476 2.5596e-17 -0.161665)
(2.78931 -2.24999e-17 -0.173716)
(2.54124 -1.10877e-24 -0.179875)
(2.31128 -1.7604e-17 -0.181149)
(2.08656 -1.55984e-17 -0.177764)
(1.85536 -8.92026e-25 -0.169547)
(1.6112 0 -0.156463)
(1.34393 1.02484e-17 -0.137856)
(1.04761 0 -0.113251)
(0.719471 6.00068e-25 -0.0823063)
(0.378814 -1.00302e-24 -0.0469985)
(0.0778556 -1.91427e-18 -0.0132653)
(-0.169287 7.11595e-20 0.0165677)
(-0.324232 0 0.0367233)
(-0.410222 1.71304e-18 0.0488195)
(-0.479704 0 0.0589804)
(-0.539436 -1.68694e-18 0.0680268)
(-0.580023 0 0.074633)
(-0.567626 -2.73481e-18 0.0744598)
(-0.540543 -1.66111e-18 0.0730237)
(-0.650084 -1.88963e-18 0.0909949)
(-1.08273 -9.95724e-19 0.153538)
(-1.9597 4.17677e-24 0.277322)
(-3.41063 -3.55823e-23 0.472322)
(-4.30864 -1.06638e-18 0.606698)
(-4.221 -1.17529e-21 0.503772)
(27.2669 0 5.04933)
(37.0717 -1.61759e-22 6.9073)
(41.4656 -8.45628e-23 7.79437)
(43.928 3.81184e-28 7.81306)
(45.2517 -1.16898e-28 7.20144)
(46.013 -1.85658e-22 6.36972)
(46.5607 -5.62274e-23 5.62616)
(47.0471 4.90814e-23 5.09249)
(47.5261 0 4.77876)
(48.0014 6.31301e-23 4.64865)
(48.4536 2.45678e-23 4.65537)
(48.8614 -3.80074e-23 4.75876)
(49.2145 0 4.93004)
(49.5138 1.88571e-23 5.14999)
(49.7651 0 5.40515)
(49.9739 0 5.68489)
(50.1441 -3.82246e-24 5.97962)
(50.278 2.06284e-24 6.28023)
(50.3773 -1.08129e-24 6.57843)
(50.4465 5.535e-25 6.86728)
(50.4979 -1.39246e-25 7.14196)
(50.5485 0 7.39959)
(50.6069 -6.86927e-26 7.6375)
(50.6631 3.40919e-26 7.85221)
(50.6988 -8.54695e-27 8.04081)
(50.7075 8.75028e-27 8.20289)
(50.698 -6.92827e-27 8.34072)
(50.6841 0 8.45774)
(50.6743 0 8.55715)
(50.6709 -4.20402e-28 8.64146)
(50.6725 0 8.71261)
(50.6762 0 8.77219)
(50.6802 1.97595e-28 8.82156)
(50.6827 1.89037e-28 8.86199)
(50.6839 0 8.89472)
(50.6828 0 8.92124)
(50.6832 -1.75746e-29 8.94305)
(50.6831 0 8.96118)
(50.6829 -2.39975e-29 8.97633)
(50.6829 1.05995e-29 8.98882)
(50.6829 0 8.99883)
(50.6831 0 9.00663)
(50.6833 1.26374e-30 9.01262)
(50.6836 -7.76097e-31 9.01724)
(50.684 0 9.02084)
(50.6847 0 9.02363)
(50.6852 2.12437e-31 9.02553)
(50.687 6.57986e-32 9.02694)
(50.687 0 9.02694)
(50.6852 3.18854e-31 9.02553)
(50.6847 0 9.02363)
(50.684 0 9.02084)
(50.6836 0 9.01724)
(50.6833 3.49968e-30 9.01262)
(50.6831 -1.03036e-29 9.00663)
(50.683 0 8.99883)
(50.683 0 8.98882)
(50.6831 -1.83269e-29 8.97633)
(50.6832 0 8.96118)
(50.6833 0 8.94305)
(50.6829 1.43155e-28 8.92124)
(50.6839 0 8.89472)
(50.6827 0 8.86199)
(50.6802 2.60428e-28 8.82156)
(50.6762 -4.1232e-28 8.77219)
(50.6725 0 8.71261)
(50.6709 -2.20826e-27 8.64146)
(50.6743 0 8.55715)
(50.6841 -3.31153e-27 8.45774)
(50.698 6.0449e-27 8.34072)
(50.7075 1.14302e-26 8.20289)
(50.6988 -4.45539e-26 8.04081)
(50.6631 4.42973e-26 7.85222)
(50.6069 -8.89266e-26 7.63751)
(50.5484 3.57372e-25 7.3996)
(50.4978 -3.56999e-25 7.14197)
(50.4464 0 6.8673)
(50.3772 1.36782e-24 6.57847)
(50.2779 7.7679e-24 6.2803)
(50.144 4.7602e-24 5.97974)
(49.9737 8.45375e-24 5.68509)
(49.7648 1.43894e-23 5.40546)
(49.5134 -2.31424e-23 5.15046)
(49.2141 6.88663e-23 4.93072)
(48.8609 -4.68743e-23 4.75968)
(48.4529 -5.9849e-23 4.65657)
(48.0003 7.48564e-23 4.65013)
(47.5244 0 4.78053)
(47.0457 -2.28835e-22 5.09451)
(46.5634 -2.71573e-22 5.62844)
(46.0292 0 6.37269)
(45.2994 0 7.20688)
(44.0322 1.2387e-27 7.82614)
(41.6361 4.10179e-22 7.82647)
(37.3317 4.84329e-27 6.99333)
(29.059 0 5.34684)
(9.17201 -4.11725e-22 1.4376)
(8.53871 1.68922e-23 1.19528)
(7.65673 0 1.06795)
(7.11239 -1.79752e-23 0.985417)
(6.77464 3.04366e-23 0.931094)
(6.53981 3.41679e-18 0.890599)
(6.36248 -2.89683e-18 0.857294)
(6.20527 9.37435e-24 0.825965)
(6.09334 4.17013e-18 0.799845)
(6.01434 -3.3805e-24 0.777153)
(5.95614 2.07035e-26 0.756158)
(5.91603 -5.30326e-18 0.736381)
(5.88954 2.22126e-24 0.717143)
(5.87294 -2.62307e-24 0.697875)
(5.86402 -7.45473e-18 0.6782)
(5.86185 -3.26245e-24 0.657876)
(5.86663 1.50045e-24 0.636743)
(5.87935 0 0.614643)
(5.9013 -5.83719e-18 0.591337)
(5.93441 0 0.566504)
(5.98034 5.76467e-18 0.539621)
(6.04017 -5.8959e-18 0.509929)
(6.11549 0 0.476535)
(6.20777 -6.54567e-18 0.438358)
(6.31809 -8.89893e-25 0.394136)
(6.44655 8.98519e-25 0.342438)
(6.59191 8.93606e-18 0.281716)
(6.75209 5.16045e-18 0.210442)
(6.92188 4.91576e-25 0.127141)
(7.10848 8.85921e-26 0.0307071)
(7.29562 1.23627e-25 -0.0801041)
(7.48037 1.07987e-17 -0.205908)
(7.65352 -1.33851e-17 -0.346843)
(7.8029 1.6728e-17 -0.502241)
(7.91619 1.06924e-23 -0.670555)
(7.97848 1.46554e-24 -0.848988)
(7.97535 -1.53495e-23 -1.03353)
(7.88517 4.33363e-17 -1.21757)
(7.6659 -5.55983e-17 -1.3882)
(7.20658 -7.15455e-17 -1.51241)
(6.42847 9.24012e-17 -1.54973)
(5.75056 -5.93903e-17 -1.58438)
(5.25847 -1.51176e-16 -1.65121)
(4.38739 -9.57345e-17 -1.56539)
(2.99067 -1.20435e-16 -1.2093)
(0.955194 0 -0.43052)
(-1.76722 0 0.951627)
(-5.34832 -1.01712e-16 3.26216)
(-9.77148 1.06071e-16 6.83747)
(-14.8242 0 11.9821)
(-20.0952 -3.62869e-17 18.8855)
(-24.9865 -8.80531e-18 27.4978)
(-28.8522 -1.76432e-18 37.482)
(-31.1799 0 48.2664)
(-31.7229 -8.15454e-20 59.169)
(-30.539 6.23655e-18 69.5458)
(-27.9292 -3.54775e-18 78.9095)
(-24.3235 -3.81121e-20 86.984)
(-20.1631 -1.84396e-18 93.6892)
(-15.8239 8.91402e-19 99.0933)
(-11.5764 8.48425e-19 103.334)
(-7.61536 3.6683e-19 106.611)
(-3.98437 -1.71482e-19 109.055)
(-0.927349 8.41473e-20 110.982)
(2.31292 1.80642e-19 113.064)
(5.58313 1.88228e-19 115.124)
(9.45712 -4.50008e-19 117.09)
(14.1648 2.83563e-21 118.564)
(19.6136 2.49131e-18 119.093)
(25.6983 -4.47445e-20 118.195)
(32.2501 7.46017e-20 115.483)
(38.9293 7.29851e-18 110.657)
(45.2103 -1.58441e-17 103.651)
(50.4527 9.4492e-20 94.6347)
(53.9932 0 83.9469)
(55.3412 6.49189e-17 72.1559)
(54.438 7.18031e-21 60.1296)
(51.681 -2.12985e-16 48.7937)
(47.6788 0 38.7816)
(43.4096 1.61621e-16 30.6213)
(39.2484 -1.392e-16 24.1378)
(35.377 0 19.0497)
(31.7485 0 15.0158)
(28.4323 0 11.8354)
(25.5359 -1.46578e-16 9.36335)
(23.1329 -1.35649e-21 7.46536)
(21.017 0 5.95641)
(19.1406 3.57893e-16 4.7454)