/*--------------------------------*- C++ -*----------------------------------*\
| =========                 |                                                 |
| \\      /  F ield         | OpenFOAM: The Open Source CFD Toolbox           |
|  \\    /   O peration     | Version:  2112                                  |
|   \\  /    A nd           | Website:  www.openfoam.com                      |
|    \\/     M anipulation  |                                                 |
\*---------------------------------------------------------------------------*/
FoamFile
{
    version     2.0;
    format      ascii;
    arch        "LSB;label=32;scalar=64";
    class       volScalarField;
    location    "1402";
    object      omega;
}
// * * * * * * * * * * * * * * * * * * * * * * * * * * * * * * * * * * * * * //

dimensions      [0 0 -1 0 0 0 0];

internalField   nonuniform List<scalar> 
14336
(
0.224347
0.231442
0.237648
0.243014
0.247614
0.251539
0.254886
0.256648
0.25871
0.261135
0.263578
0.266338
0.269761
0.274348
0.280801
0.290099
0.303456
0.322505
0.349603
0.388195
0.44357
0.52403
0.642729
0.822005
1.10173
1.55469
2.31531
3.63093
5.96345
10.213
18.1934
33.5862
63.6958
122.181
232.499
432.793
787.29
1388.79
2255.64
3136.83
3774.81
4586.78
5682.37
7307.25
10418.6
18310.9
54934.3
854251
1.69135e+08
1.73304e+08
1.77475e+08
1.81184e+08
1.84468e+08
1.87363e+08
1.89906e+08
1.92134e+08
1.94078e+08
1.9577e+08
1.97238e+08
1.98509e+08
1.99604e+08
2.00545e+08
2.01351e+08
2.02035e+08
2.02614e+08
2.03096e+08
2.03493e+08
2.03814e+08
2.04066e+08
2.04252e+08
2.04377e+08
2.04444e+08
2.04455e+08
2.0441e+08
2.04307e+08
2.04143e+08
2.03917e+08
2.03624e+08
2.03256e+08
2.02806e+08
2.02265e+08
2.01621e+08
2.00862e+08
1.99974e+08
1.98938e+08
1.97734e+08
1.96342e+08
1.94737e+08
1.9289e+08
1.90773e+08
1.88353e+08
1.85597e+08
1.82468e+08
1.78929e+08
1.74944e+08
1.70478e+08
1.65498e+08
1.59978e+08
1.539e+08
1.47251e+08
1.40042e+08
1.32298e+08
1.2407e+08
1.15431e+08
1.06478e+08
9.73253e+07
8.81021e+07
7.89454e+07
6.99966e+07
6.13926e+07
5.32562e+07
4.59488e+07
4.59454e+07
5.32654e+07
6.14043e+07
7.00122e+07
7.89663e+07
8.81285e+07
9.73568e+07
1.06514e+08
1.15469e+08
1.24108e+08
1.32334e+08
1.40072e+08
1.47277e+08
1.53921e+08
1.59995e+08
1.65512e+08
1.70489e+08
1.74952e+08
1.78936e+08
1.82474e+08
1.85602e+08
1.88357e+08
1.90776e+08
1.92893e+08
1.94739e+08
1.96344e+08
1.97736e+08
1.98939e+08
1.99975e+08
2.00863e+08
2.01622e+08
2.02265e+08
2.02806e+08
2.03256e+08
2.03624e+08
2.03918e+08
2.04144e+08
2.04307e+08
2.0441e+08
2.04455e+08
2.04444e+08
2.04377e+08
2.04252e+08
2.04066e+08
2.03815e+08
2.03493e+08
2.03095e+08
2.02613e+08
2.02034e+08
2.01349e+08
2.00545e+08
1.99604e+08
1.9851e+08
1.97238e+08
1.9577e+08
1.94078e+08
1.92134e+08
1.89906e+08
1.87363e+08
1.84468e+08
1.81184e+08
1.77475e+08
1.73304e+08
1.69134e+08
1.01383e+06
57310.7
18501.2
10461.5
7324.08
5691.77
4593.19
3780.18
3142.48
2259.98
1391.03
788.19
433.122
232.623
122.23
63.7146
33.5932
18.1961
10.214
5.96384
3.63109
2.31538
1.55472
1.10175
0.822013
0.642734
0.524032
0.443572
0.388196
0.349603
0.322506
0.303456
0.290099
0.280801
0.274348
0.269761
0.266338
0.263578
0.261135
0.25871
0.256651
0.254897
0.25155
0.247626
0.243026
0.237661
0.231457
0.224362
0.224326
0.231423
0.23763
0.242997
0.247599
0.251524
0.254873
0.256643
0.25871
0.261135
0.263579
0.266338
0.269761
0.274349
0.280801
0.290099
0.303456
0.322506
0.349603
0.388195
0.44357
0.524029
0.642728
0.822001
1.10172
1.55467
2.31527
3.63085
5.96324
10.2125
18.1918
33.5813
63.6821
122.144
232.397
432.501
786.403
1386.34
2250.53
3129.92
3768.6
4579.81
5672.56
7290.45
10376.4
18125.7
52752.7
566269
2.12468e+07
2.17434e+07
2.24998e+07
2.31999e+07
2.38426e+07
2.44278e+07
2.49578e+07
2.54365e+07
2.58688e+07
2.62615e+07
2.66224e+07
2.69626e+07
2.72928e+07
2.76351e+07
2.79998e+07
2.8383e+07
2.87133e+07
2.88973e+07
2.89975e+07
2.90752e+07
2.9136e+07
2.91812e+07
2.92118e+07
2.92283e+07
2.92312e+07
2.92204e+07
2.91957e+07
2.91564e+07
2.91018e+07
2.90309e+07
2.89411e+07
2.8799e+07
2.85154e+07
2.81405e+07
2.77632e+07
2.74158e+07
2.70812e+07
2.67462e+07
2.63924e+07
2.60112e+07
2.55926e+07
2.49119e+07
2.43937e+07
2.38026e+07
2.31534e+07
2.24423e+07
2.16412e+07
2.07776e+07
1.98468e+07
1.88575e+07
1.78227e+07
1.67673e+07
1.56914e+07
1.4617e+07
1.43498e+07
1.33846e+07
1.24316e+07
1.14943e+07
1.05792e+07
9.69103e+06
8.837e+06
8.03129e+06
7.25383e+06
6.62266e+06
6.71688e+06
7.41347e+06
8.25754e+06
9.20451e+06
1.02466e+07
1.13609e+07
1.25185e+07
1.36888e+07
1.48441e+07
1.5963e+07
1.70261e+07
1.80022e+07
1.88604e+07
1.96089e+07
2.02979e+07
2.09755e+07
2.16642e+07
2.23498e+07
2.3014e+07
2.36435e+07
2.42289e+07
2.47674e+07
2.52584e+07
2.57039e+07
2.61088e+07
2.64785e+07
2.68224e+07
2.71489e+07
2.74756e+07
2.78182e+07
2.81893e+07
2.85596e+07
2.88381e+07
2.89735e+07
2.90564e+07
2.91215e+07
2.91711e+07
2.92061e+07
2.92272e+07
2.92349e+07
2.92294e+07
2.92105e+07
2.91779e+07
2.91309e+07
2.90686e+07
2.89896e+07
2.8888e+07
2.87027e+07
2.83729e+07
2.79895e+07
2.76247e+07
2.72823e+07
2.6952e+07
2.66116e+07
2.62505e+07
2.58577e+07
2.54253e+07
2.49466e+07
2.44165e+07
2.38313e+07
2.31887e+07
2.24887e+07
2.17327e+07
2.12344e+07
996372
61498.3
18800
10526
7348.26
5704.12
4600.93
3785.76
3147.28
2263.97
1393.49
789.348
433.6
232.816
122.308
63.7454
33.6052
18.2007
10.2159
5.9646
3.63142
2.31553
1.55479
1.10178
0.822029
0.642742
0.524037
0.443574
0.388197
0.349604
0.322506
0.303456
0.2901
0.280801
0.274348
0.269761
0.266338
0.263578
0.261135
0.25871
0.256653
0.254903
0.251556
0.247633
0.243033
0.237669
0.231465
0.224371
0.224288
0.231389
0.237598
0.242967
0.247571
0.251498
0.254847
0.256635
0.25871
0.261135
0.263579
0.266339
0.269761
0.274349
0.280801
0.290099
0.303456
0.322506
0.349602
0.388194
0.443569
0.524027
0.642725
0.821995
1.10171
1.55465
2.31522
3.63072
5.96291
10.2116
18.1892
33.5741
63.6619
122.089
232.251
432.075
785.029
1382.25
2241.41
3117.28
3757.91
4568.35
5656.77
7263.99
10309
17820.9
48636.5
299700
4.51722e+06
4.7727e+06
5.04126e+06
5.2914e+06
5.52035e+06
5.72773e+06
5.91603e+06
6.08832e+06
6.24723e+06
6.39526e+06
6.53446e+06
6.66662e+06
6.79249e+06
6.91257e+06
7.02477e+06
7.12783e+06
7.2142e+06
7.27283e+06
7.31389e+06
7.34688e+06
7.37305e+06
7.39282e+06
7.40657e+06
7.41452e+06
7.41677e+06
7.41325e+06
7.4038e+06
7.38809e+06
7.36572e+06
7.33613e+06
7.29855e+06
7.24742e+06
7.16879e+06
7.06801e+06
6.95486e+06
6.83342e+06
6.7045e+06
6.56915e+06
6.42628e+06
6.27476e+06
6.11249e+06
5.90788e+06
5.71789e+06
5.30682e+06
5.07818e+06
5.02805e+06
4.5762e+06
4.31721e+06
4.07024e+06
3.8535e+06
3.68577e+06
3.83771e+06
3.84271e+06
3.88494e+06
3.95197e+06
3.87538e+06
3.71481e+06
3.47328e+06
3.19784e+06
2.91126e+06
2.61121e+06
2.30509e+06
2.00799e+06
1.76088e+06
1.87798e+06
2.13331e+06
2.47116e+06
2.83793e+06
3.21365e+06
3.59345e+06
3.97417e+06
4.34853e+06
4.70285e+06
5.02069e+06
5.28801e+06
5.53031e+06
5.7238e+06
5.87264e+06
5.97965e+06
6.05074e+06
6.10228e+06
6.14532e+06
6.19336e+06
6.24835e+06
6.31595e+06
6.39465e+06
6.48267e+06
6.57881e+06
6.67954e+06
6.78194e+06
6.88491e+06
6.98729e+06
7.0866e+06
7.1798e+06
7.26271e+06
7.33217e+06
7.38162e+06
7.40714e+06
7.42231e+06
7.43268e+06
7.4385e+06
7.43991e+06
7.43701e+06
7.42988e+06
7.41839e+06
7.40239e+06
7.38155e+06
7.35546e+06
7.32362e+06
7.28546e+06
7.23969e+06
7.17667e+06
7.08648e+06
6.9802e+06
6.86589e+06
6.74445e+06
6.6177e+06
6.48448e+06
6.34417e+06
6.19485e+06
6.03437e+06
5.86035e+06
5.67016e+06
5.46095e+06
5.23077e+06
4.98027e+06
4.71295e+06
4.45171e+06
837820
66351
19221
10615.2
7381.07
5720.46
4610.9
3792.65
3152.76
2268.6
1396.47
790.803
434.209
233.062
122.407
63.7843
33.6202
18.2065
10.2182
5.96555
3.63183
2.31571
1.55487
1.10182
0.822048
0.642752
0.524042
0.443577
0.388199
0.349605
0.322506
0.303457
0.2901
0.280801
0.274348
0.269761
0.266338
0.263578
0.261135
0.25871
0.256655
0.254909
0.251562
0.247639
0.24304
0.237676
0.231473
0.22438
0.224236
0.231341
0.237554
0.242927
0.247532
0.251461
0.254813
0.256624
0.25871
0.261136
0.26358
0.266339
0.269762
0.274349
0.280802
0.290099
0.303456
0.322506
0.349602
0.388193
0.443568
0.524025
0.642719
0.821986
1.10169
1.55461
2.31513
3.63051
5.96238
10.2102
18.1854
33.5634
63.6327
122.011
232.044
431.477
783.109
1376.51
2228.56
3099.36
3742.68
4551.9
5633.86
7225.22
10209.5
17370.8
43289.3
169543
1.38263e+06
1.50425e+06
1.61296e+06
1.71701e+06
1.81547e+06
1.9073e+06
1.99264e+06
2.07171e+06
2.14471e+06
2.21218e+06
2.27458e+06
2.33234e+06
2.38574e+06
2.435e+06
2.47989e+06
2.52033e+06
2.55496e+06
2.58172e+06
2.60281e+06
2.62032e+06
2.63464e+06
2.64595e+06
2.65441e+06
2.66013e+06
2.66309e+06
2.66312e+06
2.66006e+06
2.65355e+06
2.64326e+06
2.62873e+06
2.6095e+06
2.58399e+06
2.5489e+06
2.50505e+06
2.45424e+06
2.39691e+06
2.3329e+06
2.26232e+06
2.18463e+06
2.10022e+06
2.00915e+06
1.90497e+06
1.80429e+06
1.66334e+06
1.55447e+06
1.4825e+06
1.35204e+06
1.29196e+06
1.2869e+06
1.34608e+06
1.45555e+06
1.60297e+06
1.69824e+06
1.73284e+06
1.66559e+06
1.51477e+06
1.35844e+06
1.2046e+06
1.08379e+06
964014
844350
728468
620075
539719
626585
738394
883307
1.05751e+06
1.24562e+06
1.43589e+06
1.6286e+06
1.81933e+06
2.0001e+06
2.1586e+06
2.29034e+06
2.39323e+06
2.4644e+06
2.5235e+06
2.57512e+06
2.61323e+06
2.63984e+06
2.65686e+06
2.67347e+06
2.69168e+06
2.70992e+06
2.72699e+06
2.7437e+06
2.76021e+06
2.77787e+06
2.7954e+06
2.81124e+06
2.82387e+06
2.83121e+06
2.83342e+06
2.83114e+06
2.82548e+06
2.81552e+06
2.8007e+06
2.78361e+06
2.76583e+06
2.74738e+06
2.7283e+06
2.70868e+06
2.68849e+06
2.66756e+06
2.64573e+06
2.6227e+06
2.59808e+06
2.5715e+06
2.54259e+06
2.51084e+06
2.47402e+06
2.42981e+06
2.38034e+06
2.32716e+06
2.27036e+06
2.2102e+06
2.14637e+06
2.07864e+06
2.00652e+06
1.92956e+06
1.84739e+06
1.75974e+06
1.66641e+06
1.56745e+06
1.46364e+06
1.35661e+06
1.2243e+06
658220
71700.5
19826.8
10741.9
7426.69
5742.59
4624.06
3801.39
3159.21
2274.14
1400.19
792.666
434.996
233.38
122.534
63.8342
33.6394
18.214
10.2211
5.96675
3.63234
2.31593
1.55498
1.10187
0.822073
0.642765
0.524049
0.443581
0.388201
0.349606
0.322507
0.303457
0.2901
0.280801
0.274348
0.269761
0.266337
0.263578
0.261135
0.25871
0.256657
0.254915
0.251568
0.247646
0.243047
0.237683
0.231481
0.224389
0.224167
0.231278
0.237495
0.242872
0.247481
0.251413
0.254767
0.25661
0.25871
0.261136
0.263581
0.26634
0.269762
0.274349
0.280802
0.290099
0.303455
0.322506
0.349602
0.388191
0.443565
0.52402
0.642712
0.821971
1.10166
1.55454
2.31499
3.63018
5.96158
10.2081
18.1798
33.5482
63.5913
121.902
231.758
430.658
780.492
1368.69
2210.98
3074.72
3721.59
4528.92
5601.7
7170.43
10068.9
16754
37540.4
107588
589076
668520
720749
772089
821410
868014
911900
953003
991449
1.02709e+06
1.06002e+06
1.09035e+06
1.11817e+06
1.14356e+06
1.16654e+06
1.18716e+06
1.20516e+06
1.22015e+06
1.23275e+06
1.24352e+06
1.25263e+06
1.26017e+06
1.2662e+06
1.2708e+06
1.2739e+06
1.27531e+06
1.27488e+06
1.27227e+06
1.26723e+06
1.25936e+06
1.2483e+06
1.23336e+06
1.21331e+06
1.18818e+06
1.15829e+06
1.12338e+06
1.08308e+06
1.03724e+06
985337
927445
863280
789654
716261
638622
566436
513338
476210
496477
560853
640688
699623
720660
634072
564930
522444
493021
443684
390606
337547
285597
236854
193455
156417
135246
180648
237861
302739
379885
474670
591400
728032
868303
1.00384e+06
1.12995e+06
1.23338e+06
1.29833e+06
1.33079e+06
1.34193e+06
1.34574e+06
1.34957e+06
1.35348e+06
1.3571e+06
1.35943e+06
1.36907e+06
1.38205e+06
1.39547e+06
1.40863e+06
1.42018e+06
1.43265e+06
1.44557e+06
1.45631e+06
1.46359e+06
1.46652e+06
1.4645e+06
1.45816e+06
1.44834e+06
1.43523e+06
1.41946e+06
1.40159e+06
1.38223e+06
1.36174e+06
1.34061e+06
1.31939e+06
1.29783e+06
1.27592e+06
1.25369e+06
1.23102e+06
1.20768e+06
1.18344e+06
1.15812e+06
1.13146e+06
1.10284e+06
1.07159e+06
1.03818e+06
1.00302e+06
966170
927815
887995
846750
804029
759824
714249
667548
619981
571713
523213
475045
398291
492015
76957.5
20699.8
10925.1
7491.16
5773.11
4641.75
3812.74
3167.02
2280.94
1404.92
795.083
436.025
233.794
122.699
63.8986
33.6642
18.2235
10.2249
5.96829
3.633
2.31622
1.55511
1.10193
0.822103
0.64278
0.524057
0.443585
0.388203
0.349607
0.322508
0.303458
0.2901
0.280801
0.274348
0.269761
0.266337
0.263578
0.261135
0.25871
0.256658
0.25492
0.251574
0.247652
0.243054
0.237691
0.231489
0.224397
0.224077
0.231195
0.237419
0.242801
0.247414
0.25135
0.254707
0.25659
0.258709
0.261136
0.263582
0.266341
0.269763
0.27435
0.280802
0.290099
0.303455
0.322505
0.349601
0.388189
0.443562
0.524014
0.6427
0.821949
1.10162
1.55445
2.31478
3.62971
5.96042
10.2051
18.1719
33.5269
63.5343
121.753
231.369
429.555
776.994
1358.25
2187.54
3041.7
3693.05
4497.58
5557.66
7095.29
9877.95
15963.7
32050.4
74813.1
295528
350055
380052
410861
440759
469328
496485
522141
546489
569150
590113
609396
627034
643080
657565
670540
681967
691761
700169
707430
713615
718772
722958
726227
728525
729739
729768
728399
725456
720707
713938
704760
692613
677467
659392
638150
613485
585338
554064
518699
478074
428454
368317
302613
238337
195227
189876
222084
258805
274838
242913
207774
166820
132475
111991
101082
89205.5
76600.6
64462.9
53565.7
44242.8
36538.7
30462.9
28091.1
43119.8
69139.5
99163
133452
173443
223228
289656
376746
483635
597781
701352
784701
830406
838885
827594
812621
799819
791750
786563
785363
787635
791990
797190
801797
807914
815656
822513
827730
830910
831592
829869
825678
819266
811183
801720
790739
778499
765450
752142
738226
723710
708631
692946
676536
659274
641049
621748
601138
579140
555830
531300
505655
479068
451705
423729
395250
366409
337456
308763
280694
253405
227246
203083
158846
354255
81029.6
21937.5
11192.7
7583.41
5815.75
4665.89
3827.73
3176.76
2289.46
1411.01
798.256
437.384
234.34
122.915
63.9827
33.6965
18.2359
10.2298
5.97029
3.63384
2.31659
1.55528
1.10201
0.822142
0.6428
0.524068
0.443591
0.388207
0.349609
0.322509
0.303458
0.2901
0.280801
0.274348
0.269761
0.266337
0.263578
0.261135
0.25871
0.25666
0.254926
0.25158
0.247658
0.24306
0.237697
0.231496
0.224405
0.223961
0.231089
0.237321
0.24271
0.247329
0.251269
0.25463
0.256566
0.258709
0.261137
0.263583
0.266342
0.269764
0.27435
0.280803
0.290099
0.303454
0.322505
0.3496
0.388186
0.443557
0.524006
0.642684
0.821918
1.10156
1.55432
2.31449
3.62903
5.95878
10.201
18.1611
33.4979
63.4568
121.551
230.846
428.091
772.405
1344.66
2157.07
2998.58
3655.26
4455.77
5498.81
6994.99
9628.16
15017.6
27213.5
55307.5
164244
195873
213552
232395
251011
269158
286706
303527
319646
334814
348937
361986
373955
384858
394712
403545
411356
418140
424009
429083
433396
436984
439889
442151
443738
444589
444644
443799
441937
438909
434603
428798
421235
411906
400838
387915
373055
356414
338924
319619
297799
273109
231359
168776
111095
77112.4
77694.1
89965.8
92246.2
80824.4
61728.2
46522.2
35406.9
28117.2
23695.6
20972.8
19031.8
17467.4
16094.7
14809.4
13555.3
12349
11441.2
11294.9
14038.7
22750.5
34352.3
49004.1
66755.4
88285.2
115464
151707
203172
274847
363422
452911
526279
569758
574060
557042
535173
516534
503079
494175
489257
487287
487376
488740
491041
493920
496690
498863
500065
500311
499504
497232
493633
488966
483500
477116
469909
462088
453933
445327
436262
426749
416759
406216
395031
383131
370444
356860
342423
327117
310954
294006
276400
258279
239792
221069
202254
183560
165296
147779
131174
115828
103597
80275
248246
82564
23627.3
11586.4
7716.9
5876.05
4699.22
3847.88
3189.23
2300.38
1418.99
802.46
439.191
235.064
123.2
64.0932
33.7387
18.2521
10.2361
5.97288
3.63494
2.31707
1.55549
1.10211
0.822192
0.642826
0.524081
0.443598
0.388211
0.349611
0.32251
0.303459
0.290101
0.280801
0.274349
0.269761
0.266337
0.263578
0.261135
0.25871
0.256662
0.254931
0.251585
0.247663
0.243066
0.237704
0.231503
0.224413
0.223817
0.230957
0.237199
0.242596
0.247222
0.251168
0.254533
0.256535
0.258709
0.261137
0.263585
0.266344
0.269765
0.274351
0.280804
0.290098
0.303453
0.322505
0.349598
0.388182
0.443551
0.523994
0.642662
0.821875
1.10147
1.55414
2.31408
3.62809
5.9565
10.1953
18.1463
33.4586
63.3528
121.281
230.152
426.174
766.496
1327.35
2118.5
2943.79
3606.4
4401.23
5422.08
6864.84
9314.19
13959.1
23157.1
42475.8
99309.4
116671
127374
138941
150554
162077
173398
184396
194997
205076
214539
223343
231461
238884
245613
251657
257025
261730
265827
269370
272384
274898
276932
278511
279614
280202
280236
279692
278476
276461
273603
269777
264901
258945
251914
243746
234433
224124
213502
201744
188197
173233
143015
91179.6
50137.8
29698.1
28301.9
27952.2
24304
19659.2
15878
13669.9
12594.1
12135.2
11927.9
11758.9
11524.1
11149
10589.1
9824.93
8915.16
8043.28
7455.86
7300.38
7821.43
10277.9
14505.3
20381.8
28087.6
37873.6
50235.6
66120.8
87527.2
118024
163221
225489
297941
361023
403488
412372
396611
373815
353902
338932
328775
322237
318349
316381
315707
315830
316333
316848
317030
316726
315782
314102
311672
308562
304877
300645
295907
290745
285282
279522
273457
267092
260407
253354
245874
237917
229440
220390
210767
200569
189817
178568
166914
154968
142852
130677
118563
106657
95163.9
84301.2
74206.4
65121
58748
48464.3
170623
80523.9
25785.4
12167.4
7912.5
5962.39
4745.81
3875.36
3205.59
2314.6
1429.53
808.073
441.609
236.03
123.579
64.2394
33.7943
18.2734
10.2445
5.97628
3.63638
2.3177
1.55578
1.10224
0.822256
0.642859
0.524099
0.443608
0.388216
0.349614
0.322511
0.30346
0.290101
0.280801
0.274349
0.269761
0.266337
0.263578
0.261135
0.25871
0.256663
0.254936
0.25159
0.247669
0.243072
0.23771
0.23151
0.22442
0.223642
0.230796
0.23705
0.242457
0.247091
0.251044
0.254416
0.256498
0.258708
0.261138
0.263587
0.266346
0.269766
0.274352
0.280805
0.290098
0.303452
0.322504
0.349596
0.388176
0.443542
0.523977
0.642632
0.821817
1.10135
1.55389
2.31353
3.62679
5.95339
10.1875
18.1263
33.406
63.2142
120.924
229.239
423.698
759.03
1305.85
2071.08
2876.22
3544.78
4331.79
5324.69
6701.02
8936.3
12846.4
19814.5
33284.9
63578.7
73225
80003.8
87290.4
94707.8
102171
109596
116880
123929
130677
137064
143045
148591
153685
158319
162497
166224
169516
172398
174896
177028
178812
180259
181382
182165
182578
182597
182204
181345
179892
177858
175166
171892
167957
163316
157953
151844
144983
137514
128430
116408
98196.5
65592.2
38647.3
19016.9
11038.2
9779.43
8957.91
8251.37
7925.85
7953.08
8203.72
8526.1
8802.21
8924.6
8849.3
8507.3
7925.18
7141.52
6169.89
5262.57
4615.23
4237.38
4095
4256.42
5084.47
6831.76
9321.53
12822
17501.4
23495.3
31191.2
41267.9
54934.3
74384.5
102925
144869
197867
251401
290302
304064
292574
272037
252955
238261
228100
221179
216673
213832
212056
210993
210304
209662
208918
207890
206487
204655
202401
199753
196762
193449
189843
186003
181962
177718
173274
168617
163716
158533
153037
147202
141003
134429
127489
120206
112628
104825
96885.1
88903.8
80972.2
73176.8
65612.6
58396.3
51655.8
45481.8
40007.7
36372
32163.6
115312
74838.1
28261.3
13019.8
8203.07
6087.79
4811.75
3913.34
3227.52
2333.4
1443.57
815.617
444.867
237.326
124.084
64.4333
33.868
18.3015
10.2555
5.98074
3.63826
2.31852
1.55614
1.10242
0.82234
0.642902
0.524121
0.44362
0.388222
0.349617
0.322514
0.303461
0.290102
0.280802
0.274349
0.269761
0.266337
0.263577
0.261135
0.25871
0.256665
0.25494
0.251595
0.247674
0.243077
0.237716
0.231516
0.224427
0.223434
0.230605
0.236874
0.242293
0.246937
0.250898
0.254277
0.256453
0.258708
0.261138
0.263589
0.266348
0.269768
0.274353
0.280806
0.290097
0.30345
0.322503
0.349593
0.388169
0.44353
0.523955
0.642591
0.821739
1.1012
1.55355
2.31277
3.62503
5.94918
10.1771
18.0996
33.3362
63.0309
120.452
228.046
420.533
749.778
1279.88
2014.66
2795.62
3469.23
4245.71
5204.54
6501.4
8501.24
11732.4
17022.8
26253.5
42140.5
47881.2
52348
57063.2
61925.1
66868.6
71835
76747.3
81529.2
86140.2
90534.5
94675.8
98537
102100
105356
108301
110942
113290
115355
117152
118691
119985
121041
121862
122439
122747
122771
122479
121839
120778
119292
117356
115085
112431
109299
105687
101575
96783.3
90592.4
81661.1
68843.1
48867.6
22559.1
12285.5
6817.87
5067.21
4996.79
5143.16
5413.92
5772.91
6152.94
6501.9
6734.25
6799.35
6610.4
6205.6
5480.15
4662.17
3878.4
3213.91
2736.52
2420.13
2228.94
2145.85
2167.33
2470.61
3208.67
4409.65
6019.99
8245.2
11350.1
15417.5
20621.9
27459.9
36773
49872.5
68867.9
96515.2
134326
176422
209876
226264
220402
203672
186529
173082
163471
156805
152218
149002
146775
145184
143908
142788
141628
140334
138827
137080
135082
132875
130462
127854
125075
122159
119109
115926
112602
109117
105447
101573
97478.3
93154.3
88592.4
83802.8
78809.2
73649.8
68377.3
63057.6
57761.9
52557.5
47503.4
42653.9
38069
33814.5
29944.5
26532
24250.9
22182.3
75872.5
66452.1
30673.3
14242.5
8640.69
6273.05
4906.47
3966.62
3257.54
2358.55
1462.44
825.824
449.282
239.074
124.761
64.6919
33.9657
18.3387
10.27
5.98663
3.64074
2.3196
1.55663
1.10264
0.82245
0.642957
0.524151
0.443636
0.388231
0.349622
0.322516
0.303462
0.290103
0.280802
0.274349
0.269761
0.266337
0.263577
0.261135
0.25871
0.256666
0.254944
0.2516
0.247679
0.243082
0.237721
0.231522
0.224433
0.223198
0.230388
0.236673
0.242106
0.246761
0.250731
0.254118
0.256402
0.258707
0.261139
0.263592
0.266351
0.26977
0.274354
0.280807
0.290096
0.303448
0.322502
0.349589
0.388159
0.443514
0.523926
0.642537
0.821634
1.10098
1.55309
2.31174
3.62266
5.94355
10.1632
18.0642
33.2437
62.7893
119.834
226.497
416.527
738.531
1249.39
1949.82
2702.9
3379.36
4141.99
5060.61
6265.94
8020.13
10646.6
14609.9
20665.5
28583
32339.6
35360.4
38489.5
41751.5
45093.5
48476.3
51845.5
55148
58354
61429
64344.4
67077.2
69611.4
71937.4
74051.2
75955.5
77657.9
79163.6
80478.5
81610.9
82568.2
83355.4
83971.2
84408.9
84650.5
84684.2
84482.1
84023
83266.4
82210.7
80865
79313.8
77496.1
75328.9
72782.5
69715
65660.7
59597.1
51499.3
38465
20569.7
6521.43
4342.92
3591.63
3571.62
3851
4135.31
4428.37
4717.3
4934.26
5051.45
4963.88
4668.83
4083.14
3452.05
2860.23
2336.3
1909.07
1600.81
1386.45
1240.8
1149.16
1105.54
1106.99
1211.74
1487.96
2033.72
2854.76
3926.77
5414.71
7519.1
10450.8
14218.5
19120.1
25735
34954.6
48008
66656.5
92888.8
124013
151714
168332
167948
155511
140975
129075
120291
114094
109632
106431
104091
102277
100812
99486
98199.6
96856.4
95410.2
93825.6
92125.4
90303.4
88357.1
86296.4
84145.9
81908.4
79585.2
77171.2
74653.4
72016.5
69247.8
66339.1
63287.6
60089.1
56753.5
53301.1
49761
46172
42580.5
39036.9
35588.1
32271.7
29116.4
26149.6
23400.6
20900.2
18695.6
17163.4
15689.5
46826.9
56308.6
32470.8
15908.9
9305.03
6551.99
5044.89
4042.56
3299.49
2392.61
1487.96
839.728
455.31
241.448
125.674
65.0381
34.096
18.3881
10.2893
5.9944
3.644
2.32102
1.55726
1.10294
0.822594
0.643031
0.524189
0.443656
0.388242
0.349628
0.32252
0.303464
0.290104
0.280803
0.274349
0.269761
0.266337
0.263577
0.261135
0.25871
0.256667
0.254948
0.251604
0.247683
0.243087
0.237726
0.231528
0.224439
0.222941
0.230152
0.236455
0.241902
0.24657
0.25055
0.253945
0.256347
0.258706
0.26114
0.263595
0.266354
0.269771
0.274355
0.280808
0.290095
0.303446
0.322499
0.349583
0.388146
0.443492
0.523888
0.642465
0.821494
1.1007
1.55248
2.31037
3.6195
5.93605
10.1448
18.0173
33.1217
62.4717
119.024
224.49
411.491
725.081
1214.58
1877.94
2600.15
3275.65
4020.37
4892.71
5996
7503.34
9592.19
12455.5
16186.8
19802.5
22419.7
24492.9
26618.9
28851.8
31151.3
33491.8
35837.1
38151.7
40412.6
42594
44674
46634.2
48461
50145.9
51684.4
53077.7
54330.1
55443.5
56420.8
57267.8
57989.2
58587.2
59059.3
59401.8
59600.2
59646.9
59520.7
59209.3
58698.3
57996.5
57127
56100.3
54834.7
53261.2
51260.5
48489
44173.9
38975
30024.7
17353.7
6684.3
2864.5
2718.66
2797.77
2983.31
3210.15
3401.73
3558.52
3670.57
3633.36
3453.51
3011.4
2538.83
2104.42
1723.6
1397.12
1136.26
945.786
809.633
711.822
644.049
600.765
578.649
576.4
610.724
708.097
918.847
1302.33
1867.66
2599.67
3616.84
5100.71
7197.72
10058.4
13707.3
18553.3
25189
34393.9
47253.8
65169.6
87514.1
109959
125097
128410
120252
108620
98335.2
90492.5
84809.7
80676.6
77638.7
75320.3
73513.9
71992.4
70645.1
69360.7
68080.3
66751.1
65378.8
63946.9
62446.9
60879
59256.7
57582.6
55857.7
54077.7
52233.6
50315.6
48315.9
46230
44058.1
41798.7
39460.3
37058.5
34614.7
32155.7
29713.1
27320.9
25010.3
22804.5
20717.9
18760.6
16941.7
15286
13821.9
12746.9
11575.8
25899.8
44393.8
32966.2
17953.6
10301.4
6978.81
5251.05
4152.73
3359.32
2439.27
1522.72
858.815
463.612
244.698
126.91
65.5037
34.2702
18.4539
10.3148
6.0047
3.64832
2.32289
1.5581
1.10333
0.822783
0.643127
0.52424
0.443684
0.388257
0.349637
0.322524
0.303467
0.290105
0.280803
0.27435
0.269761
0.266337
0.263577
0.261135
0.25871
0.256669
0.254952
0.251608
0.247687
0.243091
0.237731
0.231532
0.224445
0.222677
0.229909
0.23623
0.241692
0.246372
0.250362
0.253766
0.25629
0.258705
0.261141
0.263598
0.266356
0.269773
0.274356
0.280809
0.290094
0.303442
0.322495
0.349575
0.38813
0.443465
0.523837
0.64237
0.821309
1.10032
1.55167
2.30855
3.61531
5.92611
10.1204
17.9554
32.9611
62.0549
117.967
221.896
405.179
709.171
1175.78
1800.75
2490.01
3159.03
3880.8
4700.48
5692.33
6955.53
8559.22
10511.4
12644
14070.3
15888.1
17323
18796.9
20350
21955.8
23596.7
25249.9
26891.7
28504.3
30068.4
31568.2
32989.1
34320.2
35554.2
36687.1
37718.8
38651.4
39485.2
40221.8
40865.4
41418.9
41882.3
42253.5
42531.1
42704.2
42768.3
42712.3
42529.9
42237.7
41824.9
41294.7
40601.3
39653.5
38309.7
36275.9
33169.6
29620.1
23041.2
13530.5
5636.85
2458.45
2132.34
2224.97
2339.68
2463.19
2578.73
2641.79
2628.14
2532.93
2221.54
1872.14
1553.25
1277.94
1043.55
845.288
688.365
572.905
487.167
423.738
377.929
346.153
325.759
315.031
313.235
320.567
355.139
430.057
580.55
846.166
1240.17
1749.36
2462.53
3523.73
5068.45
7236.79
10013.2
13622.8
18465.3
25047.8
34015.1
46167.2
62129.5
79289.7
92320.2
97613.9
93566.6
84901.8
76261.3
69412.8
64280.2
60517
57677.9
55508.6
53757
52295.5
50995.9
49788.5
48606.3
47439.9
46263.1
45063
43833.8
42578.5
41298.2
39993.3
38659.6
37289.9
35878
34418.9
32910
31352.4
29746
28097
26416.9
24720.3
23025
21351.6
19722.1
18156.9
16670
15267.9
13952.2
12724.3
11609.6
10617.3
9844.95
8999.11
14273.2
30910.1
31115.2
19940.8
11700.7
7631.45
5563.1
4315.51
3446.48
2504.03
1570.44
885.264
475.169
249.192
128.6
66.1332
34.5042
18.5418
10.3488
6.01836
3.65403
2.32536
1.55921
1.10384
0.823032
0.643253
0.524306
0.443719
0.388277
0.349647
0.32253
0.30347
0.290107
0.280804
0.27435
0.269761
0.266337
0.263577
0.261135
0.25871
0.25667
0.254955
0.251611
0.247691
0.243095
0.237735
0.231537
0.22445
0.222424
0.229676
0.236014
0.24149
0.246182
0.250182
0.253594
0.256234
0.258704
0.261141
0.263601
0.266359
0.269775
0.274356
0.280809
0.290092
0.303438
0.32249
0.349565
0.388109
0.443428
0.52377
0.642245
0.821065
1.09982
1.55059
2.30614
3.60978
5.91299
10.0882
17.8738
32.7501
61.5087
116.586
218.543
397.26
690.397
1133.04
1719.58
2374.47
3029.74
3722.05
4481.5
5352.63
6375.3
7543.33
8778.96
9885.57
10306.7
11499.4
12495.6
13529.3
14620.6
15753.6
16915.9
18092.7
19268.1
20428.3
21559.4
22649.7
23688.2
24666.5
25578.5
26420.7
27192.7
27894.7
28526.7
29089.8
29586.9
30020.1
30388.4
30689.9
30925.9
31090.9
31180.8
31201.9
31146.3
31024.5
30808.6
30463.3
29913
29005.5
27423.5
25272.2
22397
17249.1
9972.06
4168.51
1952.78
1702.11
1750.2
1818.66
1881.83
1916.9
1916.04
1834.88
1648.04
1391.68
1155.64
953.808
784.501
642.241
522.708
428.396
357.662
303.735
263.388
233.853
212.765
198.278
189.094
184.469
183.854
187.084
198.777
224.728
277.4
381.028
565.011
841.321
1202.14
1709.62
2485.01
3637.9
5265.91
7397.69
10109.4
13664.3
18391.3
24651.7
33003.8
44088.5
56679.5
67535.6
73535.5
72842.3
66977.5
60071.6
54164.8
49611
46194
43610.7
41584.6
39958.7
38585.5
37382.1
36268.6
35221.8
34205.7
33203.7
32205.2
31204
30199.1
29189.9
28171.5
27137.7
26083.8
25006.7
23904.4
22777.8
21627.3
20457
19274.5
18089.4
16912.8
15757.5
14637.3
13565.2
12549.3
11592.1
10691.8
9855.5
9092.36
8408.76
7840.63
7305.96
9526.97
18330.5
26029.5
20874.2
13340.7
8579.77
6035.15
4559.33
3575.89
2595.29
1636.62
922.339
491.487
255.491
130.932
66.9905
34.8198
18.6597
10.3941
6.03652
3.66161
2.32863
1.56066
1.10451
0.823359
0.643419
0.524393
0.443766
0.388302
0.349661
0.322538
0.303475
0.29011
0.280806
0.274351
0.269762
0.266337
0.263577
0.261135
0.25871
0.256671
0.254958
0.251614
0.247694
0.243099
0.237739
0.231541
0.224454
0.222201
0.22947
0.235822
0.241311
0.246013
0.250022
0.253441
0.256185
0.258704
0.261142
0.263603
0.266361
0.269776
0.274357
0.280809
0.290089
0.303433
0.322483
0.349551
0.388082
0.443381
0.523683
0.64208
0.820742
1.09916
1.54916
2.30296
3.60247
5.89571
10.0459
17.7667
32.4734
60.7946
114.789
214.216
387.299
668.091
1085.79
1634.26
2253.12
2885.55
3539.71
4229.27
4970.48
5760.02
6553.71
7266.17
7755.64
7776.03
8515.37
9212.58
9943.87
10710.2
11511.1
12337.2
13179.3
14025
14864.3
15687.1
16484.4
17248.2
17972
18651.1
19282.7
19865.8
20400.3
20885.8
21323.2
21714.8
22062.7
22366.3
22623.3
22838
23015.7
23146.2
23237
23276.7
23246.7
23110.5
22771.4
22096.7
20882.2
19442.5
16808
12494.8
6983.86
2834.97
1452.45
1323.7
1347.24
1377.5
1401.59
1405.54
1346.35
1243.36
1043.82
867.614
718.401
593.982
490.807
404.899
332.903
275.926
232.356
198.319
173.033
154.937
141.973
132.844
126.688
123.062
121.638
122.279
124.983
129.857
140.676
159.631
195.891
266.886
394.008
588.595
847.599
1214.35
1788.49
2651.48
3880.57
5514.69
7550.67
10159.6
13540.8
17931.1
23672.1
31201.1
40237
49039.6
54812.8
56205.5
52993.8
47860.8
42930.2
38957.9
35880.2
33524.7
31678.2
30177.3
28920.4
27814.2
26822.5
25898.1
25020.8
24175.1
23347.2
22533.2
21731.3
20935.2
20138.8
19338.3
18531.1
17715.5
16891.6
16059.7
15222
14383.2
13548.9
12725.7
11920.9
11142.7
10399.5
9694.73
9032.12
8412.7
7834.87
7304.7
6826.43
6407.34
6106.78
7300.22
10363.8
18459.3
19592.5
14601.4
9758.73
6715.82
4922.68
3770.17
2725.86
1729.49
975.053
514.948
264.488
134.199
68.1698
35.2485
18.8184
10.4548
6.06072
3.67167
2.33297
1.56259
1.10541
0.823791
0.643637
0.524508
0.443828
0.388336
0.34968
0.322548
0.30348
0.290113
0.280807
0.274352
0.269762
0.266338
0.263578
0.261135
0.25871
0.256671
0.254961
0.251617
0.247697
0.243102
0.237742
0.231545
0.224458
0.222022
0.229306
0.235669
0.241168
0.245878
0.249893
0.253318
0.256146
0.258703
0.261142
0.263605
0.266363
0.269777
0.274357