/*--------------------------------*- C++ -*----------------------------------*\
| =========                 |                                                 |
| \\      /  F ield         | OpenFOAM: The Open Source CFD Toolbox           |
|  \\    /   O peration     | Version:  2112                                  |
|   \\  /    A nd           | Website:  www.openfoam.com                      |
|    \\/     M anipulation  |                                                 |
\*---------------------------------------------------------------------------*/
FoamFile
{
    version     2.0;
    format      ascii;
    arch        "LSB;label=32;scalar=64";
    class       volScalarField;
    location    "1225";
    object      k;
}
// * * * * * * * * * * * * * * * * * * * * * * * * * * * * * * * * * * * * * //

dimensions      [0 2 -2 0 0 0 0];

internalField   nonuniform List<scalar> 
14751
(
1.04304e-07
1.03428e-07
1.03512e-07
1.02459e-07
1.01699e-07
1.00335e-07
9.87889e-08
9.70329e-08
9.50294e-08
9.2872e-08
9.0586e-08
8.82041e-08
8.57448e-08
8.3273e-08
8.08032e-08
7.83711e-08
7.59992e-08
7.36907e-08
7.1476e-08
6.93565e-08
6.73563e-08
6.54661e-08
6.36918e-08
6.20379e-08
6.05098e-08
5.90956e-08
5.77954e-08
5.66054e-08
5.55217e-08
5.45455e-08
5.36717e-08
5.28963e-08
5.22156e-08
5.16255e-08
5.11248e-08
5.07052e-08
5.03618e-08
5.00964e-08
4.99058e-08
4.97834e-08
4.97235e-08
4.97315e-08
4.9803e-08
4.99379e-08
5.01357e-08
5.03877e-08
5.06938e-08
5.10513e-08
5.14582e-08
5.19132e-08
5.24128e-08
5.29576e-08
5.35466e-08
5.41749e-08
5.48422e-08
5.55462e-08
5.62856e-08
5.70593e-08
5.7863e-08
5.87012e-08
5.95739e-08
6.04747e-08
6.14062e-08
6.23576e-08
6.33266e-08
6.43196e-08
6.5335e-08
6.63696e-08
6.742e-08
6.84918e-08
6.95824e-08
7.06925e-08
7.18229e-08
7.29718e-08
7.41425e-08
7.53373e-08
7.65542e-08
7.77972e-08
7.90635e-08
8.03616e-08
8.1691e-08
8.3043e-08
8.44345e-08
8.58485e-08
8.72949e-08
8.8769e-08
9.02637e-08
9.177e-08
9.3279e-08
9.47855e-08
9.62627e-08
9.76815e-08
9.90687e-08
1.00314e-07
1.01448e-07
1.02461e-07
1.03103e-07
1.03281e-07
1.04236e-07
9.5823e-08
9.47844e-08
9.45143e-08
9.38947e-08
9.33612e-08
9.27277e-08
9.19812e-08
9.11994e-08
9.03333e-08
8.94143e-08
8.84639e-08
8.74879e-08
8.64805e-08
8.54726e-08
8.44844e-08
8.35085e-08
8.25751e-08
8.16632e-08
8.07974e-08
7.99716e-08
7.92048e-08
7.84901e-08
7.78303e-08
7.7226e-08
7.66859e-08
7.61989e-08
7.57629e-08
7.53783e-08
7.50418e-08
7.47598e-08
7.45294e-08
7.43473e-08
7.42123e-08
7.41246e-08
7.40864e-08
7.40884e-08
7.41238e-08
7.42029e-08
7.43187e-08
7.44669e-08
7.46429e-08
7.48526e-08
7.5096e-08
7.53723e-08
7.56829e-08
7.6019e-08
7.63785e-08
7.67602e-08
7.71617e-08
7.7582e-08
7.8019e-08
7.84721e-08
7.89415e-08
7.94224e-08
7.99134e-08
8.04131e-08
8.09197e-08
8.14323e-08
8.19493e-08
8.24727e-08
8.30068e-08
8.35442e-08
8.40831e-08
8.46149e-08
8.51361e-08
8.56537e-08
8.61674e-08
8.66751e-08
8.71737e-08
8.76672e-08
8.81557e-08
8.86377e-08
8.91142e-08
8.95786e-08
9.00335e-08
9.04879e-08
9.09337e-08
9.13682e-08
9.1795e-08
9.22075e-08
9.26202e-08
9.30132e-08
9.34047e-08
9.37852e-08
9.41561e-08
9.45193e-08
9.48749e-08
9.52119e-08
9.55328e-08
9.58289e-08
9.61074e-08
9.63372e-08
9.65258e-08
9.66599e-08
9.66683e-08
9.66438e-08
9.64015e-08
9.59528e-08
9.55696e-08
4.9943e-07
4.94478e-07
4.93864e-07
4.9318e-07
4.93257e-07
4.93537e-07
4.93497e-07
4.93518e-07
4.93296e-07
4.92884e-07
4.92381e-07
4.91763e-07
4.9097e-07
4.901e-07
4.89242e-07
4.8832e-07
4.8748e-07
4.86598e-07
4.85793e-07
4.85028e-07
4.84395e-07
4.8387e-07
4.83465e-07
4.83179e-07
4.83057e-07
4.83063e-07
4.83192e-07
4.83453e-07
4.83839e-07
4.84385e-07
4.85084e-07
4.85921e-07
4.86896e-07
4.88022e-07
4.89321e-07
4.90741e-07
4.9225e-07
4.93917e-07
4.957e-07
4.97563e-07
4.99481e-07
5.01503e-07
5.03636e-07
5.0587e-07
5.08217e-07
5.10636e-07
5.13112e-07
5.15639e-07
5.18203e-07
5.20796e-07
5.23408e-07
5.26027e-07
5.28656e-07
5.31267e-07
5.33847e-07
5.36388e-07
5.38872e-07
5.41294e-07
5.43642e-07
5.4591e-07
5.48125e-07
5.50236e-07
5.52231e-07
5.54077e-07
5.55742e-07
5.57253e-07
5.58604e-07
5.59784e-07
5.60769e-07
5.61571e-07
5.6219e-07
5.62608e-07
5.62832e-07
5.6281e-07
5.62556e-07
5.62134e-07
5.61486e-07
5.60586e-07
5.59467e-07
5.58075e-07
5.56516e-07
5.54665e-07
5.52642e-07
5.50414e-07
5.47994e-07
5.45408e-07
5.4268e-07
5.39768e-07
5.3672e-07
5.3351e-07
5.30232e-07
5.26716e-07
5.23053e-07
5.19349e-07
5.15201e-07
5.1132e-07
5.06881e-07
5.02376e-07
4.98382e-07
1.53999e-06
1.52815e-06
1.52928e-06
1.53212e-06
1.53877e-06
1.54706e-06
1.55466e-06
1.56254e-06
1.57003e-06
1.57713e-06
1.58415e-06
1.59089e-06
1.59719e-06
1.60324e-06
1.60922e-06
1.61491e-06
1.62063e-06
1.62605e-06
1.63148e-06
1.6368e-06
1.64222e-06
1.64769e-06
1.65324e-06
1.65885e-06
1.66462e-06
1.67048e-06
1.67644e-06
1.68251e-06
1.68869e-06
1.6951e-06
1.70169e-06
1.70843e-06
1.71531e-06
1.72239e-06
1.72978e-06
1.73728e-06
1.74483e-06
1.75234e-06
1.75997e-06
1.76769e-06
1.77545e-06
1.78331e-06
1.7913e-06
1.79938e-06
1.80758e-06
1.81582e-06
1.82404e-06
1.83223e-06
1.84035e-06
1.84837e-06
1.85625e-06
1.86395e-06
1.87148e-06
1.87876e-06
1.88574e-06
1.89239e-06
1.89866e-06
1.90452e-06
1.90993e-06
1.91483e-06
1.91931e-06
1.92321e-06
1.9265e-06
1.92911e-06
1.93095e-06
1.93205e-06
1.93239e-06
1.93195e-06
1.93064e-06
1.92849e-06
1.92549e-06
1.92158e-06
1.91679e-06
1.91094e-06
1.90406e-06
1.8964e-06
1.88777e-06
1.87809e-06
1.86746e-06
1.85573e-06
1.84326e-06
1.82966e-06
1.81526e-06
1.79997e-06
1.78399e-06
1.76743e-06
1.75037e-06
1.73278e-06
1.71483e-06
1.69653e-06
1.67811e-06
1.65926e-06
1.6403e-06
1.62163e-06
1.6026e-06
1.58496e-06
1.56726e-06
1.55128e-06
1.53864e-06
3.01946e-06
3.00324e-06
3.00768e-06
3.01707e-06
3.03423e-06
3.05527e-06
3.07607e-06
3.09821e-06
3.12009e-06
3.14149e-06
3.16209e-06
3.18233e-06
3.20208e-06
3.22147e-06
3.24079e-06
3.2597e-06
3.27846e-06
3.2967e-06
3.31472e-06
3.33242e-06
3.35e-06
3.36741e-06
3.38464e-06
3.40166e-06
3.41856e-06
3.43529e-06
3.45185e-06
3.46824e-06
3.48449e-06
3.50077e-06
3.51699e-06
3.53308e-06
3.549e-06
3.56467e-06
3.57999e-06
3.59519e-06
3.61014e-06
3.62489e-06
3.6395e-06
3.65398e-06
3.66823e-06
3.68232e-06
3.69624e-06
3.70995e-06
3.72349e-06
3.73677e-06
3.74972e-06
3.7623e-06
3.77445e-06
3.78616e-06
3.79734e-06
3.80795e-06
3.81799e-06
3.82735e-06
3.83597e-06
3.8438e-06
3.85077e-06
3.85685e-06
3.86195e-06
3.86601e-06
3.86912e-06
3.87108e-06
3.87186e-06
3.8714e-06
3.86956e-06
3.86639e-06
3.86185e-06
3.85591e-06
3.84848e-06
3.83957e-06
3.82916e-06
3.81715e-06
3.8037e-06
3.78836e-06
3.77107e-06
3.75169e-06
3.73055e-06
3.70761e-06
3.683e-06
3.65657e-06
3.62873e-06
3.59908e-06
3.56806e-06
3.53562e-06
3.50203e-06
3.46743e-06
3.43199e-06
3.3957e-06
3.35889e-06
3.32161e-06
3.28421e-06
3.24635e-06
3.20857e-06
3.17157e-06
3.13484e-06
3.10087e-06
3.06815e-06
3.03998e-06
3.01958e-06
4.43807e-06
4.42003e-06
4.42594e-06
4.43946e-06
4.46338e-06
4.4929e-06
4.52279e-06
4.55482e-06
4.58691e-06
4.61871e-06
4.65006e-06
4.68115e-06
4.71167e-06
4.74166e-06
4.77104e-06
4.79987e-06
4.82843e-06
4.85647e-06
4.88419e-06
4.91153e-06
4.93859e-06
4.96533e-06
4.99173e-06
5.01775e-06
5.04344e-06
5.06876e-06
5.09368e-06
5.11819e-06
5.14225e-06
5.16574e-06
5.18878e-06
5.21141e-06
5.2336e-06
5.25529e-06
5.27651e-06
5.29732e-06
5.31763e-06
5.3375e-06
5.35695e-06
5.37599e-06
5.39453e-06
5.41261e-06
5.43019e-06
5.44726e-06
5.46383e-06
5.47982e-06
5.49516e-06
5.50981e-06
5.52371e-06
5.53683e-06
5.5491e-06
5.56046e-06
5.5709e-06
5.58033e-06
5.58868e-06
5.59591e-06
5.60194e-06
5.60672e-06
5.61019e-06
5.61227e-06
5.61304e-06
5.61233e-06
5.61008e-06
5.60627e-06
5.60078e-06
5.59362e-06
5.58478e-06
5.57423e-06
5.56189e-06
5.54775e-06
5.53186e-06
5.51357e-06
5.49276e-06
5.46969e-06
5.44433e-06
5.4167e-06
5.38693e-06
5.35499e-06
5.32099e-06
5.28483e-06
5.24686e-06
5.20675e-06
5.16493e-06
5.1214e-06
5.0764e-06
5.03014e-06
4.98279e-06
4.93439e-06
4.88532e-06
4.83568e-06
4.78586e-06
4.7356e-06
4.68553e-06
4.63654e-06
4.58835e-06
4.54373e-06
4.50152e-06
4.46593e-06
4.44111e-06
5.62363e-06
5.606e-06
5.61205e-06
5.62721e-06
5.65371e-06
5.68676e-06
5.72084e-06
5.75756e-06
5.79478e-06
5.83204e-06
5.86923e-06
5.90637e-06
5.94309e-06
5.9794e-06
6.01531e-06
6.05069e-06
6.08583e-06
6.12033e-06
6.15443e-06
6.188e-06
6.22118e-06
6.25389e-06
6.28608e-06
6.3177e-06
6.34878e-06
6.37927e-06
6.40914e-06
6.43835e-06
6.46686e-06
6.49464e-06
6.52175e-06
6.54816e-06
6.57388e-06
6.59887e-06
6.62315e-06
6.64674e-06
6.66957e-06
6.69167e-06
6.71307e-06
6.73374e-06
6.75363e-06
6.77275e-06
6.79107e-06
6.80855e-06
6.82522e-06
6.84101e-06
6.85585e-06
6.86973e-06
6.88259e-06
6.89439e-06
6.90508e-06
6.91462e-06
6.923e-06
6.93015e-06
6.93601e-06
6.94054e-06
6.9437e-06
6.94545e-06
6.94573e-06
6.94449e-06
6.94179e-06
6.93751e-06
6.93161e-06
6.92408e-06
6.91482e-06
6.90387e-06
6.8912e-06
6.87682e-06
6.86068e-06
6.84246e-06
6.82171e-06
6.79868e-06
6.77337e-06
6.74588e-06
6.71621e-06
6.68439e-06
6.6505e-06
6.61451e-06
6.5765e-06
6.5364e-06
6.49451e-06
6.45056e-06
6.40492e-06
6.35762e-06
6.30886e-06
6.25884e-06
6.20773e-06
6.15559e-06
6.10279e-06
6.04943e-06
5.99589e-06
5.94199e-06
5.88834e-06
5.83584e-06
5.78442e-06
5.73669e-06
5.69194e-06
5.65454e-06
5.62872e-06
6.53398e-06
6.51873e-06
6.52499e-06
6.54085e-06
6.56783e-06
6.60165e-06
6.63711e-06
6.67551e-06
6.71482e-06
6.75455e-06
6.79455e-06
6.83476e-06
6.87479e-06
6.91461e-06
6.95421e-06
6.99338e-06
7.03233e-06
7.07064e-06
7.10851e-06
7.14576e-06
7.18252e-06
7.21869e-06
7.2542e-06
7.28897e-06
7.323e-06
7.35623e-06
7.38862e-06
7.42013e-06
7.45072e-06
7.48036e-06
7.50906e-06
7.53682e-06
7.5636e-06
7.5894e-06
7.61422e-06
7.63805e-06
7.66085e-06
7.68263e-06
7.70341e-06
7.72317e-06
7.74186e-06
7.75949e-06
7.77604e-06
7.79147e-06
7.80581e-06
7.81901e-06
7.83103e-06
7.84185e-06
7.85143e-06
7.85977e-06
7.86682e-06
7.87256e-06
7.877e-06
7.88008e-06
7.88177e-06
7.88207e-06
7.88094e-06
7.87836e-06
7.87432e-06
7.86877e-06
7.86178e-06
7.85326e-06
7.84321e-06
7.83162e-06
7.81845e-06
7.80371e-06
7.7874e-06
7.76951e-06
7.74968e-06
7.72765e-06
7.70361e-06
7.67766e-06
7.64986e-06
7.62022e-06
7.58878e-06
7.55557e-06
7.52065e-06
7.48398e-06
7.44566e-06
7.40563e-06
7.36411e-06
7.32094e-06
7.27637e-06
7.23046e-06
7.18337e-06
7.13526e-06
7.08628e-06
7.03651e-06
6.98623e-06
6.93556e-06
6.88481e-06
6.83384e-06
6.78317e-06
6.73362e-06
6.6852e-06
6.64018e-06
6.59822e-06
6.56335e-06
6.53951e-06
7.20399e-06
7.19275e-06
7.20023e-06
7.21721e-06
7.24445e-06
7.2784e-06
7.31446e-06
7.35355e-06
7.39388e-06
7.43492e-06
7.47648e-06
7.51843e-06
7.56039e-06
7.60227e-06
7.64402e-06
7.68539e-06
7.7265e-06
7.76694e-06
7.80684e-06
7.84604e-06
7.88459e-06
7.92238e-06
7.95932e-06
7.99533e-06
8.03038e-06
8.06439e-06
8.09733e-06
8.12912e-06
8.15976e-06
8.18919e-06
8.21742e-06
8.24441e-06
8.27017e-06
8.29466e-06
8.3179e-06
8.33987e-06
8.36054e-06
8.37992e-06
8.39802e-06
8.41483e-06
8.43033e-06
8.44451e-06
8.45737e-06
8.46891e-06
8.47912e-06
8.488e-06
8.49552e-06
8.50169e-06
8.50649e-06
8.50993e-06
8.51199e-06
8.51267e-06
8.51198e-06
8.50992e-06
8.50647e-06
8.50165e-06
8.49544e-06
8.48787e-06
8.47892e-06
8.46861e-06
8.45697e-06
8.44397e-06
8.42963e-06
8.41395e-06
8.39691e-06
8.37852e-06
8.35876e-06
8.3375e-06
8.31442e-06
8.28972e-06
8.26356e-06
8.236e-06
8.20707e-06
8.17683e-06
8.14529e-06
8.1125e-06
8.0785e-06
8.04329e-06
8.00693e-06
7.9694e-06
7.93087e-06
7.89121e-06
7.85063e-06
7.80917e-06
7.76694e-06
7.72408e-06
7.6807e-06
7.63687e-06
7.5928e-06
7.54859e-06
7.50444e-06
7.46026e-06
7.41646e-06
7.37366e-06
7.33197e-06
7.29321e-06
7.25733e-06
7.22781e-06
7.2081e-06
7.68912e-06
7.68309e-06
7.693e-06
7.71193e-06
7.73999e-06
7.77438e-06
7.81114e-06
7.85086e-06
7.89198e-06
7.93394e-06
7.97653e-06
8.01954e-06
8.06264e-06
8.10566e-06
8.14852e-06
8.19094e-06
8.23296e-06
8.2742e-06
8.31474e-06
8.35441e-06
8.3932e-06
8.43102e-06
8.46775e-06
8.50331e-06
8.53765e-06
8.5707e-06
8.6024e-06
8.63271e-06
8.66158e-06
8.68899e-06
8.71493e-06
8.73937e-06
8.76231e-06
8.78373e-06
8.80364e-06
8.82203e-06
8.83889e-06
8.85423e-06
8.86807e-06
8.88041e-06
8.89123e-06
8.90057e-06
8.90841e-06
8.91478e-06
8.91969e-06
8.92315e-06
8.92516e-06
8.92575e-06
8.92492e-06
8.92269e-06
8.91909e-06
8.91413e-06
8.90784e-06
8.90024e-06
8.89135e-06
8.88119e-06
8.86979e-06
8.85718e-06
8.84338e-06
8.82842e-06
8.81234e-06
8.79515e-06
8.77686e-06
8.7575e-06
8.73706e-06
8.71554e-06
8.6929e-06
8.66891e-06
8.64374e-06
8.61756e-06
8.59046e-06
8.56249e-06
8.53373e-06
8.50419e-06
8.47392e-06
8.44297e-06
8.41136e-06
8.37912e-06
8.34629e-06
8.31287e-06
8.27897e-06
8.24451e-06
8.20964e-06
8.17437e-06
8.1388e-06
8.10301e-06
8.06708e-06
8.03106e-06
7.99508e-06
7.95921e-06
7.92357e-06
7.88809e-06
7.85303e-06
7.81889e-06
7.78576e-06
7.75509e-06
7.72702e-06
7.70441e-06
7.69024e-06
8.03989e-06
8.03968e-06
8.05287e-06
8.07439e-06
8.10383e-06
8.13902e-06
8.17665e-06
8.21699e-06
8.25872e-06
8.30126e-06
8.34437e-06
8.38781e-06
8.43124e-06
8.47449e-06
8.51741e-06
8.55973e-06
8.60143e-06
8.64215e-06
8.68194e-06
8.72062e-06
8.75816e-06
8.79445e-06
8.8294e-06
8.86291e-06
8.89493e-06
8.92539e-06
8.95424e-06
8.98143e-06
9.00695e-06
9.03076e-06
9.05285e-06
9.07322e-06
9.09187e-06
9.10879e-06
9.124e-06
9.1375e-06
9.1493e-06
9.15941e-06
9.16788e-06
9.1747e-06
9.17991e-06
9.18352e-06
9.18557e-06
9.18607e-06
9.18508e-06
9.18261e-06
9.1787e-06
9.17338e-06
9.1667e-06
9.15869e-06
9.14939e-06
9.13884e-06
9.12709e-06
9.11418e-06
9.10016e-06
9.08507e-06
9.06895e-06
9.05185e-06
9.03382e-06
9.01489e-06
8.99511e-06
8.97451e-06
8.95312e-06
8.93097e-06
8.90805e-06
8.88437e-06
8.85985e-06
8.83455e-06
8.80867e-06
8.78233e-06
8.75562e-06
8.72858e-06
8.70128e-06
8.67376e-06
8.64605e-06
8.61819e-06
8.59023e-06
8.56217e-06
8.53405e-06
8.50588e-06
8.47771e-06
8.44952e-06
8.42136e-06
8.39326e-06
8.36526e-06
8.33743e-06
8.30978e-06
8.28236e-06
8.25523e-06
8.22842e-06
8.20199e-06
8.17585e-06
8.15019e-06
8.12534e-06
8.10141e-06
8.07952e-06
8.05989e-06
8.04485e-06
8.03695e-06
8.29472e-06
8.3004e-06
8.31718e-06
8.34145e-06
8.37242e-06
8.40846e-06
8.44679e-06
8.48747e-06
8.52935e-06
8.57186e-06
8.61475e-06
8.65774e-06
8.70052e-06
8.74289e-06
8.78468e-06
8.82563e-06
8.86567e-06
8.90449e-06
8.94208e-06
8.9783e-06
9.01309e-06
9.04636e-06
9.07802e-06
9.10797e-06
9.13618e-06
9.16258e-06
9.18714e-06
9.20983e-06
9.23063e-06
9.24953e-06
9.26653e-06
9.28164e-06
9.29487e-06
9.30624e-06
9.31577e-06
9.32349e-06
9.32941e-06
9.33358e-06
9.33603e-06
9.33681e-06
9.33595e-06
9.3335e-06
9.32949e-06
9.32399e-06
9.31704e-06
9.3087e-06
9.29901e-06
9.28803e-06
9.27583e-06
9.26245e-06
9.24797e-06
9.23243e-06
9.2159e-06
9.19845e-06
9.18014e-06
9.16101e-06
9.14114e-06
9.12058e-06
9.09939e-06
9.07761e-06
9.05531e-06
9.03252e-06
9.00927e-06
8.98559e-06
8.9615e-06
8.93701e-06
8.91214e-06
8.88709e-06
8.86199e-06
8.83694e-06
8.812e-06
8.78725e-06
8.76271e-06
8.73844e-06
8.71446e-06
8.6908e-06
8.6675e-06
8.64457e-06
8.62202e-06
8.59987e-06
8.57812e-06
8.55677e-06
8.53583e-06
8.51531e-06
8.49522e-06
8.47559e-06
8.45641e-06
8.43768e-06
8.41944e-06
8.40167e-06
8.38438e-06
8.36749e-06
8.35109e-06
8.33543e-06
8.32058e-06
8.3074e-06
8.29616e-06
8.28872e-06
8.28724e-06
8.48033e-06
8.49148e-06
8.51163e-06
8.53834e-06
8.57055e-06
8.60705e-06
8.64554e-06
8.68589e-06
8.72713e-06
8.7687e-06
8.81035e-06
8.85179e-06
8.89273e-06
8.93295e-06
8.9723e-06
9.0105e-06
9.04747e-06
9.08297e-06
9.11694e-06
9.14926e-06
9.17989e-06
9.20873e-06
9.23571e-06
9.26077e-06
9.28386e-06
9.30497e-06
9.32405e-06
9.34111e-06
9.35615e-06
9.36916e-06
9.38017e-06
9.3892e-06
9.39629e-06
9.40146e-06
9.40476e-06
9.40624e-06
9.40593e-06
9.40389e-06
9.40018e-06
9.39486e-06
9.38798e-06
9.37961e-06
9.36981e-06
9.35864e-06
9.34618e-06
9.33249e-06
9.31765e-06
9.30173e-06
9.28481e-06
9.26695e-06
9.24824e-06
9.22875e-06
9.20855e-06
9.18771e-06
9.16631e-06
9.14443e-06
9.12211e-06
9.09944e-06
9.07648e-06
9.05327e-06
9.02988e-06
9.00634e-06
8.9827e-06
8.959e-06
8.93523e-06
8.9115e-06
8.88791e-06
8.86464e-06
8.84177e-06
8.81939e-06
8.79755e-06
8.77628e-06
8.75564e-06
8.73566e-06
8.71635e-06
8.69773e-06
8.67983e-06
8.66265e-06
8.64618e-06
8.63044e-06
8.61542e-06
8.60109e-06
8.58744e-06
8.57448e-06
8.56218e-06
8.55055e-06
8.53955e-06
8.52917e-06
8.5194e-06
8.51019e-06
8.50153e-06
8.49334e-06
8.48564e-06
8.47859e-06
8.47227e-06
8.4673e-06
8.46395e-06
8.46369e-06
8.46835e-06
8.61424e-06
8.6301e-06
8.653e-06
8.68142e-06
8.71419e-06
8.75041e-06
8.78816e-06
8.82723e-06
8.86676e-06
8.90626e-06
8.94545e-06
8.98407e-06
9.02184e-06
9.05858e-06
9.09409e-06
9.12817e-06
9.1607e-06
9.19149e-06
9.2205e-06
9.24762e-06
9.2728e-06
9.29599e-06
9.31714e-06
9.3362e-06
9.35317e-06
9.36802e-06
9.38077e-06
9.39141e-06
9.39998e-06
9.4065e-06
9.41101e-06
9.41355e-06
9.41417e-06
9.41293e-06
9.40989e-06
9.40512e-06
9.39867e-06
9.39062e-06
9.38104e-06
9.37001e-06
9.3576e-06
9.34388e-06
9.32895e-06
9.31289e-06
9.29576e-06
9.27767e-06
9.25869e-06
9.23891e-06
9.21841e-06
9.19728e-06
9.1756e-06
9.15347e-06
9.13095e-06
9.10813e-06
9.08508e-06
9.06189e-06
9.03861e-06
9.01533e-06
8.99209e-06
8.96896e-06
8.94599e-06
8.92322e-06
8.90069e-06
8.87844e-06
8.85651e-06
8.83506e-06
8.81421e-06
8.79405e-06
8.77466e-06
8.75609e-06
8.73838e-06
8.72157e-06
8.70567e-06
8.69071e-06
8.67669e-06
8.66362e-06
8.65151e-06
8.64036e-06
8.63014e-06
8.62087e-06
8.61251e-06
8.60504e-06
8.59844e-06
8.59269e-06
8.58775e-06
8.5836e-06
8.58021e-06
8.57753e-06
8.57554e-06
8.57416e-06
8.57337e-06
8.57309e-06
8.57329e-06
8.57408e-06
8.57549e-06
8.57797e-06
8.58177e-06
8.58802e-06
8.59822e-06
8.70738e-06
8.72697e-06
8.75171e-06
8.78086e-06
8.81322e-06
8.84813e-06
8.88404e-06
8.92065e-06
8.95725e-06
8.99339e-06
9.02882e-06
9.06329e-06
9.09656e-06
9.12846e-06
9.15881e-06
9.18746e-06
9.21429e-06
9.23916e-06
9.26203e-06
9.28284e-06
9.30155e-06
9.31813e-06
9.33256e-06
9.34484e-06
9.35497e-06
9.36297e-06
9.36887e-06
9.37269e-06
9.37449e-06
9.37431e-06
9.37222e-06
9.36827e-06
9.36253e-06
9.35508e-06
9.346e-06
9.33537e-06
9.32327e-06
9.30979e-06
9.29502e-06
9.27905e-06
9.26196e-06
9.24384e-06
9.22479e-06
9.2049e-06
9.18426e-06
9.16296e-06
9.14109e-06
9.11875e-06
9.09603e-06
9.07301e-06
9.04978e-06
9.02643e-06
9.00304e-06
8.97969e-06
8.95646e-06
8.93342e-06
8.91064e-06
8.88819e-06
8.86611e-06
8.84446e-06
8.8233e-06
8.80266e-06
8.78257e-06
8.76307e-06
8.74429e-06
8.72636e-06
8.70934e-06
8.69332e-06
8.67831e-06
8.66437e-06
8.65151e-06
8.63975e-06
8.62909e-06
8.61955e-06
8.61112e-06
8.60379e-06
8.59756e-06
8.59241e-06
8.58833e-06
8.5853e-06
8.58328e-06
8.58228e-06
8.58223e-06
8.58312e-06
8.58492e-06
8.58757e-06
8.59105e-06
8.59529e-06
8.60025e-06
8.60587e-06
8.61208e-06
8.61882e-06
8.62603e-06
8.63376e-06
8.64203e-06
8.6511e-06
8.6612e-06
8.67312e-06
8.68807e-06
8.76623e-06
8.78843e-06
8.81393e-06
8.84266e-06
8.87347e-06
8.90591e-06
8.93874e-06
8.97163e-06
9.00402e-06
9.0355e-06
9.06586e-06
9.09488e-06
9.12239e-06
9.14821e-06
9.17223e-06
9.1943e-06
9.21436e-06
9.23232e-06
9.24815e-06
9.26182e-06
9.27333e-06
9.28267e-06
9.28985e-06
9.2949e-06
9.29787e-06
9.29878e-06
9.2977e-06
9.29469e-06
9.28981e-06
9.28313e-06
9.27473e-06
9.26469e-06
9.25309e-06
9.24002e-06
9.22558e-06
9.20986e-06
9.19295e-06
9.17496e-06
9.15599e-06
9.13612e-06
9.11547e-06
9.09412e-06
9.07218e-06
9.04973e-06
9.02688e-06
9.00372e-06
8.98033e-06
8.95681e-06
8.93325e-06
8.90974e-06
8.88636e-06
8.86318e-06
8.8403e-06
8.81778e-06
8.7957e-06
8.77411e-06
8.75309e-06
8.73269e-06
8.71296e-06
8.69395e-06
8.67569e-06
8.65823e-06
8.64159e-06
8.6258e-06
8.61109e-06
8.59747e-06
8.585e-06
8.57371e-06
8.56361e-06
8.55473e-06
8.54706e-06
8.5406e-06
8.53536e-06
8.53133e-06
8.52849e-06
8.52682e-06
8.5263e-06
8.52691e-06
8.52863e-06
8.53145e-06
8.53532e-06
8.54023e-06
8.54613e-06
8.55301e-06
8.56082e-06
8.56953e-06
8.57907e-06
8.58941e-06
8.60048e-06
8.61221e-06
8.62454e-06
8.63741e-06
8.65075e-06
8.66454e-06
8.67876e-06
8.69354e-06
8.70903e-06
8.72574e-06
8.74453e-06
8.79432e-06
8.81799e-06
8.84311e-06
8.8702e-06
8.89829e-06
8.92705e-06
8.95554e-06
8.98345e-06
9.01037e-06
9.03596e-06
9.06006e-06
9.08249e-06
9.10312e-06
9.12184e-06
9.13855e-06
9.15318e-06
9.16568e-06
9.17604e-06
9.18423e-06
9.19029e-06
9.19421e-06
9.19604e-06
9.19582e-06
9.1936e-06
9.18945e-06
9.18345e-06
9.17566e-06
9.16619e-06
9.1551e-06
9.1425e-06
9.12847e-06
9.11311e-06
9.0965e-06
9.07875e-06
9.05995e-06
9.0402e-06
9.01962e-06
8.99829e-06
8.97632e-06
8.95382e-06
8.93089e-06
8.90763e-06
8.88412e-06
8.86047e-06
8.83677e-06
8.81309e-06
8.78953e-06
8.76616e-06
8.74308e-06
8.72036e-06
8.69807e-06
8.67629e-06
8.65508e-06
8.63451e-06
8.61464e-06
8.59553e-06
8.57722e-06
8.55977e-06
8.54322e-06
8.52761e-06
8.51296e-06
8.49932e-06
8.4867e-06
8.47517e-06
8.46494e-06
8.45597e-06
8.44829e-06
8.4419e-06
8.43681e-06
8.43302e-06
8.43052e-06
8.42929e-06
8.42932e-06
8.43059e-06
8.43309e-06
8.43678e-06
8.44163e-06
8.44761e-06
8.45469e-06
8.46285e-06
8.47206e-06
8.4823e-06
8.49352e-06
8.50571e-06
8.51882e-06
8.53282e-06
8.54766e-06
8.56329e-06
8.57964e-06
8.59665e-06
8.61427e-06
8.63243e-06
8.65104e-06
8.67003e-06
8.68934e-06
8.70896e-06
8.72896e-06
8.74956e-06
8.77124e-06
8.79348e-06
8.81748e-06
8.8411e-06
8.86538e-06
8.88958e-06
8.91349e-06
8.93648e-06
8.95827e-06
8.97861e-06
8.99725e-06
9.01408e-06
9.02899e-06
9.0419e-06
9.05276e-06
9.06151e-06
9.06815e-06
9.07265e-06
9.07506e-06
9.07541e-06
9.07374e-06
9.07011e-06
9.06458e-06
9.05722e-06
9.0481e-06
9.03732e-06
9.02496e-06
9.01115e-06
8.99597e-06
8.97954e-06
8.96195e-06
8.94331e-06
8.92372e-06
8.90327e-06
8.88206e-06
8.86018e-06
8.83774e-06
8.81483e-06
8.79153e-06
8.76796e-06
8.74422e-06
8.72039e-06
8.69658e-06
8.67287e-06
8.64935e-06
8.6261e-06
8.60319e-06
8.58069e-06
8.55867e-06
8.5372e-06
8.51634e-06
8.49617e-06
8.47673e-06
8.45808e-06
8.44027e-06
8.42335e-06
8.40736e-06
8.39235e-06
8.37835e-06
8.3654e-06
8.35353e-06
8.34276e-06
8.33311e-06
8.3246e-06
8.31743e-06
8.3116e-06
8.30712e-06
8.304e-06
8.30224e-06
8.30183e-06
8.30276e-06
8.30501e-06
8.30857e-06
8.3134e-06
8.31948e-06
8.32681e-06
8.33533e-06
8.34502e-06
8.35582e-06
8.3677e-06
8.38064e-06
8.3946e-06
8.40956e-06
8.42547e-06
8.44231e-06
8.46005e-06
8.47865e-06
8.49806e-06
8.51823e-06
8.53911e-06
8.56064e-06
8.58276e-06
8.60541e-06
8.6285e-06
8.65189e-06
8.67549e-06
8.69913e-06
8.72279e-06
8.74638e-06
8.77002e-06
8.76464e-06
8.78792e-06
8.80902e-06
8.82943e-06
8.84869e-06
8.86674e-06
8.88323e-06
8.89796e-06
8.91084e-06
8.92174e-06
8.93059e-06
8.93737e-06
8.94206e-06
8.94466e-06
8.94518e-06
8.94367e-06
8.94015e-06
8.93473e-06
8.92745e-06
8.91841e-06
8.90769e-06
8.89539e-06
8.8816e-06
8.86641e-06
8.84992e-06
8.83225e-06
8.8135e-06
8.79379e-06
8.77324e-06
8.75196e-06
8.73006e-06
8.70764e-06
8.68478e-06
8.66158e-06
8.63812e-06
8.61448e-06
8.59075e-06
8.56701e-06
8.54333e-06
8.5198e-06
8.49649e-06
8.47351e-06
8.45093e-06
8.4288e-06
8.4072e-06
8.38618e-06
8.3658e-06
8.34611e-06
8.32716e-06
8.309e-06
8.29167e-06
8.27522e-06
8.25969e-06
8.24511e-06
8.23152e-06
8.21895e-06
8.20744e-06
8.197e-06
8.18767e-06
8.17947e-06
8.17242e-06
8.16654e-06
8.16186e-06
8.15858e-06
8.15665e-06
8.15607e-06
8.15684e-06
8.15897e-06
8.16247e-06
8.16731e-06
8.1735e-06
8.181e-06
8.18979e-06
8.19985e-06
8.21115e-06
8.22369e-06
8.23741e-06
8.25228e-06
8.26822e-06
8.28522e-06
8.30323e-06
8.32224e-06
8.34218e-06
8.36303e-06
8.38475e-06
8.40728e-06
8.43059e-06
8.45463e-06
8.47934e-06
8.50467e-06
8.53057e-06
8.55699e-06
8.5838e-06
8.61084e-06
8.63795e-06
8.66483e-06
8.69133e-06
8.71707e-06
8.74178e-06
8.70859e-06
8.73025e-06
8.74795e-06
8.76361e-06
8.7771e-06
8.78852e-06
8.7978e-06
8.80483e-06
8.80971e-06
8.81242e-06
8.813e-06
8.81145e-06
8.80785e-06
8.80226e-06
8.79476e-06
8.78546e-06
8.77441e-06
8.76178e-06
8.74762e-06
8.73208e-06
8.71526e-06
8.69728e-06
8.67826e-06
8.65831e-06
8.63753e-06
8.61602e-06
8.59389e-06
8.57124e-06
8.54819e-06
8.52486e-06
8.50135e-06
8.47775e-06
8.45413e-06
8.43057e-06
8.40713e-06
8.38389e-06
8.3609e-06
8.33822e-06
8.31591e-06
8.29403e-06
8.27262e-06
8.25176e-06
8.23149e-06
8.21188e-06
8.19295e-06
8.17475e-06
8.15731e-06
8.14068e-06
8.12487e-06
8.10993e-06
8.09588e-06
8.08276e-06
8.07058e-06
8.05938e-06
8.04917e-06
8.03997e-06
8.03182e-06
8.02471e-06
8.01869e-06
8.01376e-06
8.00994e-06
8.00726e-06
8.00579e-06
8.00565e-06
8.00676e-06
8.00914e-06
8.01281e-06
8.01778e-06
8.02405e-06
8.03164e-06
8.04054e-06
8.05076e-06
8.06227e-06
8.07507e-06
8.08913e-06
8.10447e-06
8.12107e-06
8.13887e-06
8.15781e-06
8.17786e-06
8.19896e-06
8.22113e-06
8.24429e-06
8.26837e-06
8.29332e-06
8.3191e-06
8.34563e-06
8.37286e-06
8.40072e-06
8.42917e-06
8.45815e-06
8.48762e-06
8.51745e-06
8.5474e-06
8.57727e-06
8.60662e-06
8.63517e-06
8.66225e-06
8.68719e-06
8.62659e-06
8.6459e-06
8.65956e-06
8.66986e-06
8.67706e-06
8.68142e-06
8.68315e-06
8.68228e-06
8.67908e-06
8.67367e-06
8.66615e-06
8.65665e-06
8.64527e-06
8.63214e-06
8.61741e-06
8.60125e-06
8.58379e-06
8.56519e-06
8.54553e-06
8.52496e-06
8.5036e-06
8.48158e-06
8.45905e-06
8.43611e-06
8.41286e-06
8.38939e-06
8.36579e-06
8.34214e-06
8.31852e-06
8.29504e-06
8.27177e-06
8.24878e-06
8.22611e-06
8.20383e-06
8.18198e-06
8.16061e-06
8.13976e-06
8.11946e-06
8.09976e-06
8.08068e-06
8.06227e-06
8.04454e-06
8.02751e-06
8.0112e-06
7.99563e-06
7.98084e-06
7.96683e-06
7.95363e-06
7.94125e-06
7.92973e-06
7.91906e-06
7.90927e-06
7.90038e-06
7.89239e-06
7.88533e-06
7.8792e-06
7.87402e-06
7.8698e-06
7.86656e-06
7.86431e-06
7.86307e-06
7.86285e-06
7.8638e-06
7.86589e-06
7.86909e-06
7.87343e-06
7.87891e-06
7.88555e-06
7.89338e-06
7.90241e-06
7.91266e-06
7.92415e-06
7.93691e-06
7.95094e-06
7.96627e-06
7.98289e-06
8.0008e-06
8.01999e-06
8.04044e-06
8.06211e-06
8.08495e-06
8.10901e-06
8.13418e-06
8.1604e-06
8.18758e-06
8.21567e-06
8.24458e-06
8.2742e-06
8.30445e-06
8.33529e-06
8.36662e-06
8.3984e-06
8.43049e-06
8.4626e-06
8.49446e-06
8.52551e-06
8.55534e-06
8.58299e-06
8.6074e-06
8.52097e-06
8.53741e-06
8.54666e-06
8.55136e-06
8.55215e-06
8.54948e-06
8.54383e-06
8.53541e-06
8.52464e-06
8.51178e-06
8.49701e-06
8.48056e-06
8.46259e-06
8.44329e-06
8.42282e-06
8.40142e-06
8.37927e-06
8.35657e-06
8.33338e-06
8.30985e-06
8.28606e-06
8.26215e-06
8.23823e-06
8.21439e-06
8.19072e-06
8.16731e-06
8.14421e-06
8.1215e-06
8.09924e-06
8.07745e-06
8.05614e-06
8.03537e-06
8.01515e-06
7.99551e-06
7.97648e-06
7.95809e-06
7.94035e-06
7.92327e-06
7.90689e-06
7.89122e-06
7.87629e-06
7.86211e-06
7.84864e-06
7.83587e-06
7.82383e-06
7.81252e-06
7.80194e-06
7.79212e-06
7.78305e-06
7.77475e-06
7.76722e-06
7.76047e-06
7.75451e-06
7.74935e-06
7.745e-06
7.74146e-06
7.73875e-06
7.73687e-06
7.73583e-06
7.73565e-06
7.73635e-06
7.73793e-06
7.74053e-06
7.74407e-06
7.74856e-06
7.75401e-06
7.76043e-06
7.76784e-06
7.77626e-06
7.78571e-06
7.79623e-06
7.80785e-06
7.82058e-06
7.83448e-06
7.84964e-06
7.86603e-06
7.88366e-06
7.90257e-06
7.92277e-06
7.94431e-06
7.96719e-06
7.99142e-06
8.01695e-06
8.04374e-06
8.0717e-06
8.10076e-06
8.13082e-06
8.16172e-06
8.19334e-06
8.22562e-06
8.2584e-06
8.29164e-06
8.32515e-06
8.35858e-06
8.39161e-06
8.42355e-06
8.45386e-06
8.48132e-06
8.50452e-06
8.39554e-06
8.40883e-06
8.41365e-06
8.41296e-06
8.40773e-06
8.39863e-06
8.38639e-06
8.37141e-06
8.35427e-06
8.33533e-06
8.31487e-06
8.29316e-06
8.27049e-06
8.24704e-06
8.223e-06
8.1986e-06
8.17402e-06
8.14948e-06
8.12505e-06
8.10085e-06
8.07697e-06
8.05344e-06
8.03029e-06
8.00759e-06
7.9854e-06
7.96377e-06
7.94275e-06
7.92239e-06
7.90275e-06
7.88384e-06
7.86556e-06
7.84792e-06
7.83094e-06
7.81462e-06
7.79897e-06
7.78398e-06
7.76967e-06
7.75603e-06
7.74306e-06
7.73073e-06
7.71903e-06
7.70792e-06
7.6975e-06
7.68776e-06
7.67869e-06
7.67032e-06
7.66262e-06
7.65561e-06
7.64928e-06
7.64364e-06
7.63868e-06
7.63442e-06
7.63085e-06
7.62797e-06
7.62579e-06
7.62432e-06
7.62355e-06
7.6235e-06
7.62416e-06
7.62557e-06
7.62771e-06
7.63063e-06
7.63439e-06
7.63893e-06
7.64426e-06
7.65039e-06
7.65733e-06
7.66511e-06
7.67374e-06
7.68325e-06
7.69367e-06
7.70503e-06
7.71734e-06
7.73063e-06
7.74478e-06
7.75996e-06
7.77622e-06
7.79363e-06
7.81224e-06
7.83211e-06
7.85341e-06
7.87607e-06
7.90012e-06
7.92559e-06
7.95249e-06
7.98074e-06
8.01024e-06
8.04084e-06
8.07239e-06
8.10479e-06
8.13784e-06
8.17141e-06
8.20529e-06
8.23905e-06
8.27228e-06
8.30424e-06
8.33419e-06
8.36075e-06
8.38215e-06
8.25588e-06
8.26599e-06
8.26675e-06
8.26133e-06
8.25102e-06
8.2367e-06
8.2193e-06
8.19938e-06
8.1777e-06
8.1547e-06
8.1307e-06
8.10601e-06
8.08093e-06
8.05569e-06
8.03051e-06
8.0056e-06
7.98097e-06
7.95681e-06
7.93318e-06
7.9102e-06
7.88796e-06
7.86645e-06
7.84556e-06
7.82531e-06
7.80574e-06
7.78686e-06
7.76869e-06
7.75121e-06
7.73435e-06
7.71813e-06
7.70263e-06
7.68786e-06
7.6738e-06
7.66045e-06
7.6478e-06
7.63584e-06
7.62454e-06
7.61389e-06
7.60388e-06
7.59446e-06
7.58559e-06
7.57727e-06
7.56959e-06
7.56255e-06
7.55613e-06
7.55034e-06
7.54517e-06
7.54061e-06
7.53665e-06
7.53329e-06
7.53054e-06
7.52837e-06
7.5268e-06
7.52583e-06
7.52544e-06
7.52565e-06
7.52645e-06
7.52785e-06
7.52985e-06
7.53246e-06
7.53568e-06
7.53957e-06
7.54412e-06
7.54929e-06
7.55511e-06
7.56157e-06
7.56869e-06
7.57649e-06
7.585e-06
7.59423e-06
7.6042e-06
7.61495e-06
7.62649e-06
7.6388e-06
7.65179e-06
7.66565e-06
7.68046e-06
7.69628e-06
7.71314e-06
7.73107e-06
7.7499e-06
7.76991e-06
7.7912e-06
7.81385e-06
7.83803e-06
7.86366e-06
7.8907e-06
7.9191e-06
7.9488e-06
7.97958e-06
8.0113e-06
8.04375e-06
8.07666e-06
8.10954e-06
8.14186e-06
8.17281e-06
8.20154e-06
8.22648e-06
8.24564e-06
8.10919e-06
8.11633e-06
8.11373e-06
8.10467e-06
8.09066e-06
8.0728e-06
8.05213e-06
8.02935e-06
8.00529e-06
7.98049e-06
7.9553e-06
7.93e-06
7.90476e-06
7.87982e-06
7.85541e-06
7.83182e-06
7.80881e-06
7.78649e-06
7.76489e-06
7.74401e-06
7.72377e-06
7.7042e-06
7.68544e-06
7.66749e-06
7.65034e-06
7.63399e-06
7.61841e-06
7.60356e-06
7.58934e-06
7.57578e-06
7.563e-06
7.551e-06
7.53974e-06
7.52921e-06
7.51939e-06
7.51023e-06
7.50173e-06
7.49386e-06
7.48657e-06
7.47984e-06
7.47364e-06
7.46797e-06
7.46289e-06
7.45838e-06
7.45443e-06
7.45102e-06
7.44815e-06
7.4458e-06
7.44397e-06
7.44265e-06
7.44182e-06
7.44149e-06
7.44164e-06
7.44228e-06
7.4434e-06
7.445e-06
7.44707e-06
7.44963e-06
7.45266e-06
7.45617e-06
7.46017e-06
7.4647e-06
7.46973e-06
7.47523e-06
7.48122e-06
7.4877e-06
7.49469e-06
7.5022e-06
7.51026e-06
7.51887e-06
7.52807e-06
7.53787e-06