/*--------------------------------*- C++ -*----------------------------------*\
| =========                 |                                                 |
| \\      /  F ield         | OpenFOAM: The Open Source CFD Toolbox           |
|  \\    /   O peration     | Version:  2112                                  |
|   \\  /    A nd           | Website:  www.openfoam.com                      |
|    \\/     M anipulation  |                                                 |
\*---------------------------------------------------------------------------*/
FoamFile
{
    version     2.0;
    format      ascii;
    arch        "LSB;label=32;scalar=64";
    class       volScalarField;
    location    "1225";
    object      nut;
}
// * * * * * * * * * * * * * * * * * * * * * * * * * * * * * * * * * * * * * //

dimensions      [0 2 -1 0 0 0 0];

internalField   nonuniform List<scalar> 
14751
(
1.04292e-09
1.03413e-09
1.03507e-09
1.02462e-09
1.01707e-09
1.00348e-09
9.88069e-10
9.70534e-10
9.50495e-10
9.28917e-10
9.06052e-10
8.82158e-10
8.57424e-10
8.32592e-10
8.07811e-10
7.83437e-10
7.59691e-10
7.36581e-10
7.14412e-10
6.93232e-10
6.73279e-10
6.54423e-10
6.36727e-10
6.20269e-10
6.05108e-10
5.91064e-10
5.78134e-10
5.66272e-10
5.55443e-10
5.4569e-10
5.3696e-10
5.29214e-10
5.22414e-10
5.16522e-10
5.11522e-10
5.07313e-10
5.03845e-10
5.01156e-10
4.99215e-10
4.97925e-10
4.97221e-10
4.97208e-10
4.9785e-10
4.99156e-10
5.01122e-10
5.0363e-10
5.06678e-10
5.1024e-10
5.14296e-10
5.18833e-10
5.23815e-10
5.2926e-10
5.35157e-10
5.41448e-10
5.48129e-10
5.55176e-10
5.62579e-10
5.70325e-10
5.78371e-10
5.86797e-10
5.95607e-10
6.04725e-10
6.14168e-10
6.23765e-10
6.33501e-10
6.43477e-10
6.53677e-10
6.64048e-10
6.74554e-10
6.85274e-10
6.96182e-10
7.07285e-10
7.1859e-10
7.30082e-10
7.41791e-10
7.53739e-10
7.65909e-10
7.78339e-10
7.91003e-10
8.03984e-10
8.1728e-10
8.30801e-10
8.44717e-10
8.58843e-10
8.73277e-10
8.87986e-10
9.02899e-10
9.17903e-10
9.32905e-10
9.47849e-10
9.6248e-10
9.76604e-10
9.90482e-10
1.00294e-09
1.01428e-09
1.02444e-09
1.03088e-09
1.0327e-09
1.0423e-09
5.66161e-09
5.60136e-09
5.59252e-09
5.56653e-09
5.54873e-09
5.52629e-09
5.49772e-09
5.46739e-09
5.43188e-09
5.39301e-09
5.35194e-09
5.30859e-09
5.26248e-09
5.21587e-09
5.16992e-09
5.12416e-09
5.08041e-09
5.03724e-09
4.9962e-09
4.95709e-09
4.92112e-09
4.8877e-09
4.85699e-09
4.82928e-09
4.80518e-09
4.78367e-09
4.76461e-09
4.748e-09
4.73367e-09
4.72225e-09
4.71359e-09
4.70751e-09
4.70397e-09
4.703e-09
4.70478e-09
4.70857e-09
4.71396e-09
4.72179e-09
4.73163e-09
4.74301e-09
4.7556e-09
4.77012e-09
4.78662e-09
4.8052e-09
4.82595e-09
4.8481e-09
4.87149e-09
4.89607e-09
4.92168e-09
4.94826e-09
4.97566e-09
5.00393e-09
5.03309e-09
5.06273e-09
5.09274e-09
5.12305e-09
5.15351e-09
5.18407e-09
5.21459e-09
5.24544e-09
5.27688e-09
5.30833e-09
5.33959e-09
5.3697e-09
5.39843e-09
5.42647e-09
5.45378e-09
5.48006e-09
5.50506e-09
5.52919e-09
5.55243e-09
5.57465e-09
5.5959e-09
5.61575e-09
5.63435e-09
5.65225e-09
5.66894e-09
5.68423e-09
5.69838e-09
5.71094e-09
5.72287e-09
5.7329e-09
5.74226e-09
5.75027e-09
5.75711e-09
5.76301e-09
5.76804e-09
5.77149e-09
5.77361e-09
5.77398e-09
5.77321e-09
5.76997e-09
5.76502e-09
5.75758e-09
5.7437e-09
5.72972e-09
5.70531e-09
5.67199e-09
5.64631e-09
8.63329e-08
8.55417e-08
8.57048e-08
8.59817e-08
8.65026e-08
8.71149e-08
8.77071e-08
8.83417e-08
8.89462e-08
8.95257e-08
9.00933e-08
9.06363e-08
9.11377e-08
9.16172e-08
9.20882e-08
9.25332e-08
9.29784e-08
9.33948e-08
9.38059e-08
9.42046e-08
9.46091e-08
9.50112e-08
9.54123e-08
9.58144e-08
9.62271e-08
9.66389e-08
9.70488e-08
9.74578e-08
9.78649e-08
9.8281e-08
9.8705e-08
9.91348e-08
9.95713e-08
1.00018e-07
1.0048e-07
1.00945e-07
1.01408e-07
1.01886e-07
1.02371e-07
1.02851e-07
1.0332e-07
1.03796e-07
1.0428e-07
1.04775e-07
1.05283e-07
1.05792e-07
1.063e-07
1.06805e-07
1.07305e-07
1.07798e-07
1.08282e-07
1.08756e-07
1.0922e-07
1.09667e-07
1.10095e-07
1.105e-07
1.1088e-07
1.11233e-07
1.11556e-07
1.1185e-07
1.12122e-07
1.12357e-07
1.12553e-07
1.12698e-07
1.12784e-07
1.12818e-07
1.12801e-07
1.12727e-07
1.12591e-07
1.12396e-07
1.12143e-07
1.11828e-07
1.11452e-07
1.11005e-07
1.10491e-07
1.09923e-07
1.09289e-07
1.08586e-07
1.07821e-07
1.06985e-07
1.06101e-07
1.05146e-07
1.04148e-07
1.03101e-07
1.02011e-07
1.00887e-07
9.97379e-08
9.85566e-08
9.73577e-08
9.61404e-08
9.49283e-08
9.36967e-08
9.24746e-08
9.12887e-08
9.00729e-08
8.89834e-08
8.78785e-08
8.6877e-08
8.60904e-08
5.23823e-07
5.20791e-07
5.24006e-07
5.28727e-07
5.35854e-07
5.44151e-07
5.52522e-07
5.61319e-07
5.70182e-07
5.79074e-07
5.88085e-07
5.97062e-07
6.05884e-07
6.14602e-07
6.23255e-07
6.31718e-07
6.40088e-07
6.48189e-07
6.56129e-07
6.63849e-07
6.71426e-07
6.7881e-07
6.85992e-07
6.92963e-07
6.99759e-07
7.06331e-07
7.12676e-07
7.18793e-07
7.24684e-07
7.30409e-07
7.35954e-07
7.41307e-07
7.46474e-07
7.51488e-07
7.56412e-07
7.61144e-07
7.65653e-07
7.69882e-07
7.73941e-07
7.77827e-07
7.81503e-07
7.85042e-07
7.8846e-07
7.91754e-07
7.9496e-07
7.98021e-07
8.00919e-07
8.03654e-07
8.06208e-07
8.08578e-07
8.10748e-07
8.12708e-07
8.14466e-07
8.15982e-07
8.17237e-07
8.1822e-07
8.18907e-07
8.1929e-07
8.19347e-07
8.19063e-07
8.18488e-07
8.17535e-07
8.16187e-07
8.14409e-07
8.12138e-07
8.09411e-07
8.06219e-07
8.02549e-07
7.98356e-07
7.93664e-07
7.88473e-07
7.82761e-07
7.7655e-07
7.69762e-07
7.62423e-07
7.5467e-07
7.46408e-07
7.37614e-07
7.28357e-07
7.18575e-07
7.08464e-07
6.97849e-07
6.86913e-07
6.75631e-07
6.64132e-07
6.52492e-07
6.40771e-07
6.2898e-07
6.17227e-07
6.05544e-07
5.94064e-07
5.82705e-07
5.71667e-07
5.61153e-07
5.50998e-07
5.41996e-07
5.33658e-07
5.2684e-07
5.22249e-07
1.53305e-06
1.5345e-06
1.55092e-06
1.5721e-06
1.60076e-06
1.63282e-06
1.66642e-06
1.70202e-06
1.73836e-06
1.77516e-06
1.81204e-06
1.849e-06
1.88575e-06
1.92223e-06
1.95838e-06
1.99387e-06
2.02868e-06
2.06239e-06
2.0951e-06
2.12663e-06
2.15705e-06
2.18619e-06
2.21398e-06
2.24033e-06
2.26529e-06
2.28875e-06
2.3107e-06
2.33113e-06
2.35005e-06
2.36762e-06
2.38379e-06
2.39852e-06
2.41183e-06
2.42368e-06
2.43409e-06
2.44321e-06
2.45103e-06
2.45763e-06
2.46315e-06
2.46761e-06
2.47102e-06
2.47349e-06
2.47508e-06
2.47583e-06
2.47584e-06
2.47505e-06
2.47349e-06
2.47118e-06
2.46813e-06
2.46437e-06
2.45989e-06
2.45471e-06
2.44887e-06
2.44234e-06
2.4351e-06
2.42715e-06
2.4185e-06
2.40912e-06
2.399e-06
2.38813e-06
2.3766e-06
2.36428e-06
2.35118e-06
2.33725e-06
2.32241e-06
2.30674e-06
2.29021e-06
2.27283e-06
2.25452e-06
2.23533e-06
2.21526e-06
2.19426e-06
2.17241e-06
2.14948e-06
2.12547e-06
2.10035e-06
2.07432e-06
2.04744e-06
2.01978e-06
1.99139e-06
1.96248e-06
1.93292e-06
1.90305e-06
1.87289e-06
1.84269e-06
1.81262e-06
1.78283e-06
1.75341e-06
1.72461e-06
1.69658e-06
1.6695e-06
1.6433e-06
1.61848e-06
1.59532e-06
1.57394e-06
1.55553e-06
1.53939e-06
1.528e-06
1.52537e-06
2.79838e-06
2.80883e-06
2.84536e-06
2.89182e-06
2.95283e-06
3.02032e-06
3.09108e-06
3.16561e-06
3.24137e-06
3.31781e-06
3.3943e-06
3.47056e-06
3.54579e-06
3.61978e-06
3.69202e-06
3.76232e-06
3.83055e-06
3.89621e-06
3.95933e-06
4.01966e-06
4.07726e-06
4.13186e-06
4.18332e-06
4.23158e-06
4.27667e-06
4.31848e-06
4.35701e-06
4.39227e-06
4.42425e-06
4.45296e-06
4.47859e-06
4.50125e-06
4.52103e-06
4.53801e-06
4.55231e-06
4.56413e-06
4.57349e-06
4.58063e-06
4.58572e-06
4.58885e-06
4.59007e-06
4.58956e-06
4.58742e-06
4.58376e-06
4.57874e-06
4.57231e-06
4.56454e-06
4.55549e-06
4.54519e-06
4.53368e-06
4.52099e-06
4.50714e-06
4.49221e-06
4.47613e-06
4.45891e-06
4.44056e-06
4.42105e-06
4.40039e-06
4.37852e-06
4.35545e-06
4.33127e-06
4.30582e-06
4.27908e-06
4.25101e-06
4.2215e-06
4.19062e-06
4.15835e-06
4.12466e-06
4.08947e-06
4.05281e-06
4.01466e-06
3.97455e-06
3.93244e-06
3.88859e-06
3.84305e-06
3.79592e-06
3.74737e-06
3.69749e-06
3.64642e-06
3.59428e-06
3.54138e-06
3.48761e-06
3.43349e-06
3.37913e-06
3.32491e-06
3.27113e-06
3.21801e-06
3.16578e-06
3.11483e-06
3.06542e-06
3.01782e-06
2.972e-06
2.92881e-06
2.88878e-06
2.85241e-06
2.82153e-06
2.79601e-06
2.78089e-06
2.78234e-06
4.44383e-06
4.47034e-06
4.53625e-06
4.61903e-06
4.72503e-06
4.84103e-06
4.96219e-06
5.08873e-06
5.21652e-06
5.3446e-06
5.47194e-06
5.59779e-06
5.72087e-06
5.84079e-06
5.95688e-06
6.06864e-06
6.17595e-06
6.27789e-06
6.37474e-06
6.46605e-06
6.55207e-06
6.63242e-06
6.70703e-06
6.77583e-06
6.83898e-06
6.89641e-06
6.94824e-06
6.99456e-06
7.03546e-06
7.07117e-06
7.10196e-06
7.12807e-06
7.14971e-06
7.16712e-06
7.18057e-06
7.1903e-06
7.19644e-06
7.19937e-06
7.19931e-06
7.19646e-06
7.19092e-06
7.18298e-06
7.17278e-06
7.16048e-06
7.14632e-06
7.13029e-06
7.11249e-06
7.09304e-06
7.07196e-06
7.04936e-06
7.02525e-06
6.99968e-06
6.97275e-06
6.94437e-06
6.91456e-06
6.88332e-06
6.85062e-06
6.81644e-06
6.78072e-06
6.74345e-06
6.70471e-06
6.66427e-06
6.62213e-06
6.5782e-06
6.53234e-06
6.48462e-06
6.43497e-06
6.38332e-06
6.32952e-06
6.27325e-06
6.21404e-06
6.15226e-06
6.08794e-06
6.02129e-06
5.95242e-06
5.88152e-06
5.80871e-06
5.73414e-06
5.65801e-06
5.5805e-06
5.50201e-06
5.42249e-06
5.34263e-06
5.2626e-06
5.18295e-06
5.10407e-06
5.02629e-06
4.94995e-06
4.87561e-06
4.80361e-06
4.73429e-06
4.66772e-06
4.60516e-06
4.54748e-06
4.49575e-06
4.45277e-06
4.4195e-06
4.40393e-06
4.41401e-06
6.48593e-06
6.53534e-06
6.6396e-06
6.76874e-06
6.93049e-06
7.10556e-06
7.28714e-06
7.47494e-06
7.66295e-06
7.84969e-06
8.03356e-06
8.21338e-06
8.3874e-06
8.55515e-06
8.71573e-06
8.86842e-06
9.01313e-06
9.14871e-06
9.27569e-06
9.39364e-06
9.50301e-06
9.60349e-06
9.69512e-06
9.77796e-06
9.85235e-06
9.91837e-06
9.97635e-06
1.00265e-05
1.00693e-05
1.01049e-05
1.0134e-05
1.01568e-05
1.01738e-05
1.01854e-05
1.01919e-05
1.01937e-05
1.01911e-05
1.01845e-05
1.01743e-05
1.01607e-05
1.0144e-05
1.01246e-05
1.01025e-05
1.00781e-05
1.00516e-05
1.00231e-05
9.99263e-06
9.96045e-06
9.92658e-06
9.89113e-06
9.85414e-06
9.81566e-06
9.77577e-06
9.73439e-06
9.69155e-06
9.6472e-06
9.60131e-06
9.55384e-06
9.5047e-06
9.45383e-06
9.40128e-06
9.34679e-06
9.29029e-06
9.23166e-06
9.17072e-06
9.10746e-06
9.04171e-06
8.97332e-06
8.90162e-06
8.82639e-06
8.74793e-06
8.66648e-06
8.58213e-06
8.49498e-06
8.40518e-06
8.31291e-06
8.21829e-06
8.12149e-06
8.02276e-06
7.92234e-06
7.82068e-06
7.71775e-06
7.6144e-06
7.51087e-06
7.40781e-06
7.30572e-06
7.20502e-06
7.10612e-06
7.00975e-06
6.9163e-06
6.82623e-06
6.73968e-06
6.65843e-06
6.5838e-06
6.51763e-06
6.46405e-06
6.42537e-06
6.41287e-06
6.43639e-06
8.92903e-06
9.00575e-06
9.15445e-06
9.33595e-06
9.55905e-06
9.79766e-06
1.0043e-05
1.0294e-05
1.05426e-05
1.07867e-05
1.10244e-05
1.12541e-05
1.14737e-05
1.16828e-05
1.18804e-05
1.20657e-05
1.22387e-05
1.23984e-05
1.25456e-05
1.268e-05
1.28025e-05
1.29129e-05
1.30114e-05
1.30983e-05
1.31743e-05
1.32396e-05
1.32948e-05
1.33404e-05
1.3377e-05
1.34051e-05
1.34254e-05
1.34385e-05
1.34448e-05
1.3445e-05
1.34396e-05
1.34289e-05
1.34135e-05
1.33938e-05
1.33704e-05
1.33435e-05
1.33134e-05
1.32807e-05
1.32454e-05
1.32079e-05
1.31685e-05
1.31272e-05
1.30844e-05
1.304e-05
1.29943e-05
1.29472e-05
1.28989e-05
1.28494e-05
1.27987e-05
1.27468e-05
1.26937e-05
1.26393e-05
1.25835e-05
1.25263e-05
1.24674e-05
1.24069e-05
1.23447e-05
1.22805e-05
1.2214e-05
1.21453e-05
1.20739e-05
1.19997e-05
1.19225e-05
1.18418e-05
1.1757e-05
1.16686e-05
1.15769e-05
1.14818e-05
1.13834e-05
1.12818e-05
1.11771e-05
1.10694e-05
1.09589e-05
1.08456e-05
1.07299e-05
1.0612e-05
1.04925e-05
1.03711e-05
1.0249e-05
1.01263e-05
1.00039e-05
9.88221e-06
9.76181e-06
9.64315e-06
9.52709e-06
9.4141e-06
9.30471e-06
9.1992e-06
9.09994e-06
9.0089e-06
8.92885e-06
8.86554e-06
8.82265e-06
8.81531e-06
8.85555e-06
1.17622e-05
1.18659e-05
1.20595e-05
1.22925e-05
1.25746e-05
1.28725e-05
1.3176e-05
1.34828e-05
1.37831e-05
1.40745e-05
1.43545e-05
1.46217e-05
1.48739e-05
1.51108e-05
1.53315e-05
1.55355e-05
1.57231e-05
1.58933e-05
1.60476e-05
1.61859e-05
1.63094e-05
1.64182e-05
1.65129e-05
1.6594e-05
1.66623e-05
1.67185e-05
1.67633e-05
1.67975e-05
1.68218e-05
1.68371e-05
1.68441e-05
1.68434e-05
1.68358e-05
1.68219e-05
1.68024e-05
1.67778e-05
1.67486e-05
1.67155e-05
1.66789e-05
1.66393e-05
1.65969e-05
1.65524e-05
1.65058e-05
1.64577e-05
1.64081e-05
1.63574e-05
1.63056e-05
1.62529e-05
1.61995e-05
1.61454e-05
1.60907e-05
1.60353e-05
1.59793e-05
1.59227e-05
1.58653e-05
1.5807e-05
1.57478e-05
1.56876e-05
1.5626e-05
1.5563e-05
1.54983e-05
1.54317e-05
1.53629e-05
1.52916e-05
1.52174e-05
1.51401e-05
1.50593e-05
1.49742e-05
1.48854e-05
1.47929e-05
1.46968e-05
1.45969e-05
1.44933e-05
1.43858e-05
1.42746e-05
1.41596e-05
1.40411e-05
1.3919e-05
1.37935e-05
1.3665e-05
1.35338e-05
1.33998e-05
1.32642e-05
1.3127e-05
1.29893e-05
1.28514e-05
1.27141e-05
1.25777e-05
1.24433e-05
1.23115e-05
1.21828e-05
1.20578e-05
1.19394e-05
1.18305e-05
1.17349e-05
1.16601e-05
1.16112e-05
1.1608e-05
1.16646e-05
1.49495e-05
1.50741e-05
1.53057e-05
1.55809e-05
1.59106e-05
1.62547e-05
1.66017e-05
1.69487e-05
1.7284e-05
1.76055e-05
1.79104e-05
1.81977e-05
1.84653e-05
1.87132e-05
1.8941e-05
1.91483e-05
1.9336e-05
1.95034e-05
1.96524e-05
1.97834e-05
1.98977e-05
1.99958e-05
2.00786e-05
2.01469e-05
2.02017e-05
2.02437e-05
2.02742e-05
2.02938e-05
2.03035e-05
2.03043e-05
2.0297e-05
2.02824e-05
2.02613e-05
2.02345e-05
2.02026e-05
2.01663e-05
2.01261e-05
2.00827e-05
2.00366e-05
1.99883e-05
1.99382e-05
1.98868e-05
1.98343e-05
1.97811e-05
1.97274e-05
1.96735e-05
1.96194e-05
1.95655e-05
1.95116e-05
1.9458e-05
1.94046e-05
1.93515e-05
1.92985e-05
1.92457e-05
1.91927e-05
1.91397e-05
1.90862e-05
1.90323e-05
1.89774e-05
1.89215e-05
1.88642e-05
1.8805e-05
1.87438e-05
1.86799e-05
1.8613e-05
1.85427e-05
1.84684e-05
1.83902e-05
1.83082e-05
1.82223e-05
1.81322e-05
1.80376e-05
1.79384e-05
1.78343e-05
1.77254e-05
1.76116e-05
1.74928e-05
1.73691e-05
1.72404e-05
1.71071e-05
1.69694e-05
1.68271e-05
1.66815e-05
1.65326e-05
1.63814e-05
1.62285e-05
1.60743e-05
1.59195e-05
1.57654e-05
1.56124e-05
1.54614e-05
1.5313e-05
1.51713e-05
1.50397e-05
1.49232e-05
1.48313e-05
1.47708e-05
1.47661e-05
1.48336e-05
1.84265e-05
1.85597e-05
1.88153e-05
1.91162e-05
1.94751e-05
1.98454e-05
2.02158e-05
2.05823e-05
2.09323e-05
2.12639e-05
2.15749e-05
2.18642e-05
2.21304e-05
2.2374e-05
2.25947e-05
2.27927e-05
2.29694e-05
2.31243e-05
2.32597e-05
2.33762e-05
2.34756e-05
2.35585e-05
2.3626e-05
2.36791e-05
2.3719e-05
2.37465e-05
2.37629e-05
2.37691e-05
2.37662e-05
2.37551e-05
2.37367e-05
2.37119e-05
2.36816e-05
2.36465e-05
2.36075e-05
2.3565e-05
2.35198e-05
2.34726e-05
2.34239e-05
2.33742e-05
2.33238e-05
2.32733e-05
2.32229e-05
2.31731e-05
2.3124e-05
2.30757e-05
2.30286e-05
2.29828e-05
2.29382e-05
2.28949e-05
2.28529e-05
2.28122e-05
2.27727e-05
2.27342e-05
2.26964e-05
2.26594e-05
2.26226e-05
2.25859e-05
2.25489e-05
2.25111e-05
2.24723e-05
2.24318e-05
2.23893e-05
2.23441e-05
2.22956e-05
2.22434e-05
2.21873e-05
2.21272e-05
2.20627e-05
2.19935e-05
2.19191e-05
2.18389e-05
2.17526e-05
2.16597e-05
2.15602e-05
2.14538e-05
2.13403e-05
2.12194e-05
2.10912e-05
2.09557e-05
2.08133e-05
2.06634e-05
2.05076e-05
2.03457e-05
2.01789e-05
2.00078e-05
1.98329e-05
1.96549e-05
1.94754e-05
1.92949e-05
1.91145e-05
1.89353e-05
1.8762e-05
1.85991e-05
1.84528e-05
1.83343e-05
1.82523e-05
1.82364e-05
1.83038e-05
2.21043e-05
2.22304e-05
2.24915e-05
2.27978e-05
2.3164e-05
2.35385e-05
2.39108e-05
2.42763e-05
2.46217e-05
2.49459e-05
2.52468e-05
2.55241e-05
2.57764e-05
2.6005e-05
2.62097e-05
2.63912e-05
2.65511e-05
2.66893e-05
2.68083e-05
2.69088e-05
2.69929e-05
2.70611e-05
2.71148e-05
2.71551e-05
2.71832e-05
2.72002e-05
2.72072e-05
2.72052e-05
2.71953e-05
2.71785e-05
2.71558e-05
2.71279e-05
2.70959e-05
2.70604e-05
2.70223e-05
2.69822e-05
2.69408e-05
2.68988e-05
2.68567e-05
2.6815e-05
2.67741e-05
2.67346e-05
2.66965e-05
2.66605e-05
2.66265e-05
2.65948e-05
2.65656e-05
2.65389e-05
2.65147e-05
2.64931e-05
2.6474e-05
2.64572e-05
2.64426e-05
2.64299e-05
2.6419e-05
2.64094e-05
2.64008e-05
2.63927e-05
2.63848e-05
2.63764e-05
2.6367e-05
2.6356e-05
2.63428e-05
2.63265e-05
2.63066e-05
2.62827e-05
2.62544e-05
2.62213e-05
2.61825e-05
2.61374e-05
2.60851e-05
2.6025e-05
2.59565e-05
2.58788e-05
2.57916e-05
2.56946e-05
2.55872e-05
2.54691e-05
2.53402e-05
2.52003e-05
2.50499e-05
2.48882e-05
2.47169e-05
2.45359e-05
2.43464e-05
2.41492e-05
2.39451e-05
2.37348e-05
2.35201e-05
2.33019e-05
2.30817e-05
2.28607e-05
2.26448e-05
2.24391e-05
2.22512e-05
2.20942e-05
2.19783e-05
2.19378e-05
2.19904e-05
2.58835e-05
2.59866e-05
2.62343e-05
2.6526e-05
2.68793e-05
2.72384e-05
2.75949e-05
2.79432e-05
2.82699e-05
2.85747e-05
2.88557e-05
2.91128e-05
2.93454e-05
2.95546e-05
2.97408e-05
2.99047e-05
3.00481e-05
3.01711e-05
3.02763e-05
3.03644e-05
3.04376e-05
3.04964e-05
3.05423e-05
3.05764e-05
3.05999e-05
3.06139e-05
3.06195e-05
3.06178e-05
3.06098e-05
3.05966e-05
3.0579e-05
3.0558e-05
3.05343e-05
3.05088e-05
3.04822e-05
3.04552e-05
3.04284e-05
3.04025e-05
3.03783e-05
3.03559e-05
3.0336e-05
3.0319e-05
3.0305e-05
3.02944e-05
3.02875e-05
3.02842e-05
3.02848e-05
3.02892e-05
3.02974e-05
3.03093e-05
3.03247e-05
3.03435e-05
3.03653e-05
3.03898e-05
3.04165e-05
3.04452e-05
3.04751e-05
3.05057e-05
3.05364e-05
3.05665e-05
3.05952e-05
3.06217e-05
3.06452e-05
3.06649e-05
3.06798e-05
3.06899e-05
3.06942e-05
3.06917e-05
3.06812e-05
3.06618e-05
3.06325e-05
3.05923e-05
3.05403e-05
3.04756e-05
3.03977e-05
3.03059e-05
3.01997e-05
3.00784e-05
2.99419e-05
2.979e-05
2.9623e-05
2.94401e-05
2.92434e-05
2.90325e-05
2.88091e-05
2.85742e-05
2.83287e-05
2.80737e-05
2.78114e-05
2.75431e-05
2.72706e-05
2.69954e-05
2.67246e-05
2.6464e-05
2.62223e-05
2.60143e-05
2.58518e-05
2.57728e-05
2.57952e-05
2.96716e-05
2.9739e-05
2.99576e-05
3.02194e-05
3.0545e-05
3.08755e-05
3.12048e-05
3.15268e-05
3.18279e-05
3.21085e-05
3.23666e-05
3.26027e-05
3.2816e-05
3.30081e-05
3.31791e-05
3.33299e-05
3.34625e-05
3.35767e-05
3.36755e-05
3.37593e-05
3.38302e-05
3.38889e-05
3.39367e-05
3.39746e-05
3.40039e-05
3.40255e-05
3.40407e-05
3.40504e-05
3.40559e-05
3.40579e-05
3.40575e-05
3.40555e-05
3.40526e-05
3.40497e-05
3.40474e-05
3.40463e-05
3.40471e-05
3.40504e-05
3.40568e-05
3.40667e-05
3.40806e-05
3.4099e-05
3.41219e-05
3.41497e-05
3.41824e-05
3.42201e-05
3.42628e-05
3.43105e-05
3.43629e-05
3.44199e-05
3.4481e-05
3.45461e-05
3.46146e-05
3.46858e-05
3.47594e-05
3.48346e-05
3.49105e-05
3.49866e-05
3.50616e-05
3.5135e-05
3.52055e-05
3.52722e-05
3.53341e-05
3.53898e-05
3.54389e-05
3.54808e-05
3.55141e-05
3.55375e-05
3.55497e-05
3.55494e-05
3.55353e-05
3.55063e-05
3.54613e-05
3.53994e-05
3.532e-05
3.52224e-05
3.51058e-05
3.49694e-05
3.48131e-05
3.46365e-05
3.44403e-05
3.42233e-05
3.3988e-05
3.3734e-05
3.34633e-05
3.31771e-05
3.28769e-05
3.2564e-05
3.22412e-05
3.19102e-05
3.15732e-05
3.12323e-05
3.08954e-05
3.05691e-05
3.02633e-05
2.99939e-05
2.9774e-05
2.96446e-05
2.96235e-05
3.33998e-05
3.34234e-05
3.36031e-05
3.38267e-05
3.41169e-05
3.44133e-05
3.47121e-05
3.50062e-05
3.52821e-05
3.55407e-05
3.57798e-05
3.6e-05
3.62007e-05
3.63834e-05
3.65479e-05
3.66952e-05
3.6827e-05
3.69432e-05
3.70468e-05
3.7138e-05
3.72192e-05
3.72906e-05
3.73535e-05
3.74087e-05
3.74575e-05
3.75006e-05
3.75393e-05
3.75746e-05
3.76076e-05
3.76394e-05
3.76709e-05
3.77027e-05
3.77357e-05
3.77706e-05
3.7808e-05
3.78485e-05
3.78924e-05
3.79405e-05
3.7993e-05
3.80504e-05
3.8113e-05
3.81815e-05
3.82557e-05
3.8336e-05
3.84222e-05
3.85142e-05
3.8612e-05
3.87153e-05
3.88237e-05
3.89367e-05
3.90539e-05
3.91746e-05
3.92981e-05
3.94235e-05
3.955e-05
3.96766e-05
3.98022e-05
3.99257e-05
4.00457e-05
4.01611e-05
4.02706e-05
4.03726e-05
4.0466e-05
4.05493e-05
4.06222e-05
4.06835e-05
4.07315e-05
4.0765e-05
4.07827e-05
4.07834e-05
4.07659e-05
4.07288e-05
4.06711e-05
4.05918e-05
4.04908e-05
4.03677e-05
4.02216e-05
4.00518e-05
3.9858e-05
3.96399e-05
3.93982e-05
3.9132e-05
3.88437e-05
3.85326e-05
3.82013e-05
3.7851e-05
3.74837e-05
3.71011e-05
3.67065e-05
3.63021e-05
3.58906e-05
3.54747e-05
3.50632e-05
3.46632e-05
3.42857e-05
3.39475e-05
3.36629e-05
3.34751e-05
3.34017e-05
3.70326e-05
3.70104e-05
3.71477e-05
3.73318e-05
3.75867e-05
3.78511e-05
3.81231e-05
3.83949e-05
3.86528e-05
3.88978e-05
3.91279e-05
3.93431e-05
3.95429e-05
3.97288e-05
3.99004e-05
4.00585e-05
4.02045e-05
4.03379e-05
4.04618e-05
4.05763e-05
4.0684e-05
4.0785e-05
4.08804e-05
4.0971e-05
4.10576e-05
4.11408e-05
4.12217e-05
4.13011e-05
4.13803e-05
4.14605e-05
4.15424e-05
4.1627e-05
4.17149e-05
4.18068e-05
4.19034e-05
4.20049e-05
4.21119e-05
4.22248e-05
4.23435e-05
4.2468e-05
4.25985e-05
4.27356e-05
4.28792e-05
4.30293e-05
4.31856e-05
4.33478e-05
4.35155e-05
4.36882e-05
4.38653e-05
4.4046e-05
4.42294e-05
4.44145e-05
4.46003e-05
4.47854e-05
4.49685e-05
4.51483e-05
4.53232e-05
4.54916e-05
4.56517e-05
4.5802e-05
4.59405e-05
4.60655e-05
4.61754e-05
4.62685e-05
4.63445e-05
4.64015e-05
4.64381e-05
4.64531e-05
4.64457e-05
4.64155e-05
4.63616e-05
4.62835e-05
4.61801e-05
4.60505e-05
4.58949e-05
4.57145e-05
4.5509e-05
4.52779e-05
4.50207e-05
4.47372e-05
4.44286e-05
4.4094e-05
4.37357e-05
4.33525e-05
4.29472e-05
4.2521e-05
4.20757e-05
4.16134e-05
4.11378e-05
4.06515e-05
4.01577e-05
3.96598e-05
3.91674e-05
3.86882e-05
3.82343e-05
3.7823e-05
3.74695e-05
3.7219e-05
3.70897e-05
4.05735e-05
4.0508e-05
4.06055e-05
4.07555e-05
4.0982e-05
4.12233e-05
4.14791e-05
4.17406e-05
4.19938e-05
4.22401e-05
4.24769e-05
4.27039e-05
4.29205e-05
4.3128e-05
4.33259e-05
4.35149e-05
4.36963e-05
4.38687e-05
4.4035e-05
4.41951e-05
4.43517e-05
4.45053e-05
4.46572e-05
4.48078e-05
4.4958e-05
4.51077e-05
4.52577e-05
4.54082e-05
4.55603e-05
4.57152e-05
4.58741e-05
4.60377e-05
4.62065e-05
4.63815e-05
4.65631e-05
4.67519e-05
4.69484e-05
4.71528e-05
4.73651e-05
4.75844e-05
4.78101e-05
4.80421e-05
4.82802e-05
4.85243e-05
4.87736e-05
4.90274e-05
4.92851e-05
4.95457e-05
4.98081e-05
5.00712e-05
5.03335e-05
5.05936e-05
5.08499e-05
5.11005e-05
5.13435e-05
5.15771e-05
5.1799e-05
5.20071e-05
5.2199e-05
5.23727e-05
5.25255e-05
5.26553e-05
5.27598e-05
5.2838e-05
5.28879e-05
5.29076e-05
5.28957e-05
5.28515e-05
5.27746e-05
5.26656e-05
5.25253e-05
5.23548e-05
5.21549e-05
5.19246e-05
5.16641e-05
5.13757e-05
5.10618e-05
5.07234e-05
5.03606e-05
4.99731e-05
4.95619e-05
4.91279e-05
4.8673e-05
4.8195e-05
4.76964e-05
4.71784e-05
4.66421e-05
4.6089e-05
4.55227e-05
4.49462e-05
4.43626e-05
4.37759e-05
4.31969e-05
4.26334e-05
4.2099e-05
4.16113e-05
4.11865e-05
4.08717e-05
4.06865e-05
4.40668e-05
4.39638e-05
4.4029e-05
4.41562e-05
4.43677e-05
4.46016e-05
4.48588e-05
4.51293e-05
4.53985e-05
4.56679e-05
4.59351e-05
4.61991e-05
4.64589e-05
4.67151e-05
4.69671e-05
4.72163e-05
4.7464e-05
4.7708e-05
4.79506e-05
4.81906e-05
4.84304e-05
4.8671e-05
4.89142e-05
4.91606e-05
4.94112e-05
4.9666e-05
4.99254e-05
5.01886e-05
5.04553e-05
5.07261e-05
5.10023e-05
5.12844e-05
5.1573e-05
5.18688e-05
5.21725e-05
5.24846e-05
5.28061e-05
5.31376e-05
5.34795e-05
5.38312e-05
5.41907e-05
5.45559e-05
5.4925e-05
5.52976e-05
5.56725e-05
5.60484e-05
5.64244e-05
5.67988e-05
5.71699e-05
5.75361e-05
5.78952e-05
5.82452e-05
5.85838e-05
5.89084e-05
5.92166e-05
5.95056e-05
5.97727e-05
6.00151e-05
6.02297e-05
6.04138e-05
6.05643e-05
6.06783e-05
6.07531e-05
6.07873e-05
6.07773e-05
6.07215e-05
6.06181e-05
6.04661e-05
6.02654e-05
6.0017e-05
5.97232e-05
5.93882e-05
5.90172e-05
5.86131e-05
5.81754e-05
5.77035e-05
5.72035e-05
5.66808e-05
5.61397e-05
5.55807e-05
5.50039e-05
5.44115e-05
5.38082e-05
5.31906e-05
5.25603e-05
5.19185e-05
5.12653e-05
5.06001e-05
4.99259e-05
4.9245e-05
4.85594e-05
4.78732e-05
4.71984e-05
4.65427e-05
4.59214e-05
4.53525e-05
4.48531e-05
4.44727e-05
4.42336e-05
4.76003e-05
4.74671e-05
4.75131e-05
4.76351e-05
4.78523e-05
4.81026e-05
4.83876e-05
4.86963e-05
4.9013e-05
4.93388e-05
4.96715e-05
5.00106e-05
5.03546e-05
5.07027e-05
5.1053e-05
5.14069e-05
5.17676e-05
5.21329e-05
5.25049e-05
5.28804e-05
5.32597e-05
5.36429e-05
5.40323e-05
5.44288e-05
5.48338e-05
5.52485e-05
5.56744e-05
5.61109e-05
5.6556e-05
5.70065e-05
5.74616e-05
5.79222e-05
5.83882e-05
5.88602e-05
5.93388e-05
5.98241e-05
6.03171e-05
6.08191e-05
6.13318e-05
6.1857e-05
6.23948e-05
6.29397e-05
6.34834e-05
6.40258e-05
6.45649e-05
6.50988e-05
6.56258e-05
6.61438e-05
6.66503e-05
6.7143e-05
6.76188e-05
6.80752e-05
6.85091e-05
6.89171e-05
6.92962e-05
6.9643e-05
6.99538e-05
7.02254e-05
7.0454e-05
7.06364e-05
7.07688e-05
7.08479e-05
7.08706e-05
7.08338e-05
7.07335e-05
7.05676e-05
7.03337e-05
7.00298e-05
6.96549e-05
6.92092e-05
6.86941e-05
6.81147e-05
6.74808e-05
6.68063e-05
6.61004e-05
6.53473e-05
6.4554e-05
6.37324e-05
6.28961e-05
6.20547e-05
6.12081e-05
6.03532e-05
5.95036e-05
5.86584e-05
5.78184e-05
5.69841e-05
5.61565e-05
5.53321e-05
5.45107e-05
5.36938e-05
5.28803e-05
5.20726e-05
5.12834e-05
5.05198e-05
4.97985e-05
4.91384e-05
4.85574e-05
4.81078e-05
4.78169e-05
5.13125e-05
5.11573e-05
5.12033e-05
5.13455e-05
5.15997e-05
5.1902e-05
5.22545e-05
5.26458e-05
5.30587e-05
5.34932e-05
5.39462e-05
5.44182e-05
5.49098e-05
5.54189e-05
5.59402e-05
5.64717e-05
5.70181e-05
5.7579e-05
5.81587e-05
5.87545e-05
5.93638e-05
5.99798e-05
6.06022e-05
6.12319e-05
6.18705e-05
6.252e-05
6.31844e-05
6.38677e-05
6.45713e-05
6.52856e-05
6.60001e-05
6.67161e-05
6.74329e-05
6.81501e-05
6.88676e-05
6.95847e-05
7.03012e-05
7.10176e-05
7.17348e-05
7.24568e-05
7.31916e-05
7.39376e-05
7.46744e-05
7.54022e-05
7.61184e-05
7.68208e-05
7.75071e-05
7.81744e-05
7.88197e-05
7.944e-05
8.00318e-05
8.0592e-05
8.11169e-05
8.16024e-05
8.20452e-05
8.24413e-05
8.27867e-05
8.30777e-05
8.33099e-05
8.348e-05
8.35836e-05
8.3617e-05
8.35779e-05
8.34604e-05
8.32611e-05
8.29771e-05
8.26049e-05
8.21416e-05
8.15843e-05
8.09304e-05
8.01777e-05
7.93252e-05
7.83778e-05
7.73541e-05
7.62965e-05
7.51708e-05
7.39771e-05
7.27294e-05
7.14502e-05
7.01705e-05
6.89113e-05
6.76409e-05
6.63871e-05
6.51633e-05
6.39767e-05
6.28222e-05
6.17053e-05
6.06247e-05
5.95743e-05
5.85528e-05
5.75564e-05
5.65812e-05
5.56399e-05
5.47373e-05
5.38902e-05
5.31191e-05
5.24421e-05
5.19157e-05
5.15737e-05
5.54054e-05
5.52368e-05
5.53104e-05
5.55091e-05
5.5847e-05
5.62552e-05
5.6735e-05
5.72748e-05
5.78576e-05
5.84824e-05
5.91427e-05
5.98367e-05
6.05688e-05
6.13409e-05
6.21465e-05
6.29745e-05
6.38193e-05
6.46835e-05
6.55753e-05
6.64994e-05
6.74592e-05
6.84344e-05
6.94095e-05
7.03853e-05
7.13606e-05
7.23354e-05
7.33128e-05
7.43007e-05
7.5315e-05
7.63487e-05
7.73739e-05
7.83914e-05
7.94002e-05
8.03988e-05
8.13858e-05
8.23589e-05
8.33158e-05
8.42539e-05
8.51688e-05
8.60561e-05
8.69136e-05
8.77468e-05
8.85651e-05
8.93665e-05
9.01494e-05
9.09115e-05
9.16508e-05
9.23644e-05
9.30496e-05
9.37034e-05
9.43223e-05
9.49038e-05
9.5444e-05
9.59394e-05
9.63868e-05
9.67822e-05
9.71222e-05
9.7403e-05
9.76205e-05
9.77716e-05
9.78518e-05
9.78574e-05
9.77862e-05
9.7633e-05
9.73945e-05
9.70674e-05
9.66478e-05
9.61314e-05
9.55142e-05
9.47912e-05
9.3956e-05
9.29997e-05
9.191e-05
9.0673e-05
8.92852e-05
8.7787e-05
8.61821e-05
8.44756e-05
8.26799e-05
8.08354e-05
7.90242e-05
7.71796e-05
7.53328e-05
7.35245e-05
7.17961e-05
7.01285e-05
6.85313e-05
6.70228e-05
6.55965e-05
6.42392e-05
6.29525e-05
6.17217e-05
6.05551e-05
5.94554e-05
5.8435e-05
5.75157e-05
5.67164e-05
5.60981e-05
5.57036e-05
6.01594e-05
5.99885e-05
6.01286e-05
6.04339e-05
6.09213e-05
6.15143e-05
6.22111e-05
6.29956e-05
6.38519e-05
6.47836e-05
6.57811e-05
6.6832e-05
6.79336e-05
6.90971e-05
7.03286e-05
7.16193e-05
7.29179e-05
7.42257e-05
7.55478e-05
7.6894e-05
7.82931e-05
7.97219e-05
8.11386e-05
8.25399e-05
8.39206e-05
8.52736e-05
8.65927e-05
8.78703e-05
8.91049e-05
9.03078e-05
9.14935e-05
9.2659e-05
9.38046e-05
9.49283e-05
9.60286e-05
9.71023e-05
9.81466e-05
9.91566e-05
0.000100124
0.000101034
0.000101768
0.000102224
0.000102671
0.00010311
0.00010354
0.00010396
0.000104369
0.000104768
0.000105153
0.000105525
0.000105882
0.000106221
0.000106543
0.000106844
0.000107123
0.000107378
0.000107606
0.000107806
0.000107974
0.000108107
0.000108204
0.000108261
0.000108268
0.000108234
0.000108156
0.000108033
0.000107862
0.00010764
0.000107366
0.000107035
0.000106648
0.000106201
0.000105693
0.000105123
0.000103799
0.000102215
0.000100502
9.86521e-05
9.66467e-05
9.44682e-05
9.21164e-05
8.96786e-05
8.7168e-05
8.46327e-05
8.21803e-05
7.97926e-05
7.74771e-05
7.52956e-05
7.32775e-05
7.1373e-05
6.96097e-05
6.79732e-05
6.64504e-05
6.50502e-05
6.3775e-05
6.26422e-05
6.16732e-05
6.09354e-05
6.04832e-05
6.59452e-05
6.57883e-05
6.60495e-05
6.65275e-05
6.72496e-05
6.81299e-05
6.91667e-05
7.03301e-05
7.15916e-05
7.29673e-05
7.44594e-05
7.60436e-05
7.76731e-05
7.93563e-05
8.11118e-05
8.29831e-05
8.48507e-05
8.66986e-05
8.8516e-05
9.02825e-05
9.1996e-05
9.36732e-05
9.53272e-05
9.69473e-05
9.85274e-05
0.000100056
0.000101517
0.000102885
0.000103929
0.000104572
0.000105203
0.000105822
0.000106429
0.000107025
0.00010761
0.000108185
0.000108749
0.000109305
0.000109851
0.000110389
0.000110921
0.000111446
0.00011196
0.000112463
0.000112955
0.000113434
0.0001139
0.000114352
0.000114788
0.000115207
0.000115607
0.000115988
0.000116346
0.000116681
0.000116989
0.000117269
0.000117518
0.000117733
0.000117913
0.000118054
0.000118153
0.000118203
0.000118201
0.000118153
0.000118055
0.000117905
0.000117701
0.000117439
0.000117118
0.000116734
0.000116287
0.000115774
0.000115196
0.000114554
0.000113852
0.000113084
0.000112246
0.00011134
0.000110366
0.000109324
0.000106953
0.000104365
0.000101625
9.87139e-05
9.56354e-05
9.24924e-05
8.93501e-05
8.62969e-05
8.34605e-05
8.07576e-05
7.8254e-05
7.59943e-05
7.39128e-05
7.20413e-05
7.03826e-05
6.89306e-05
6.77122e-05
6.68054e-05
6.62808e-05
7.32175e-05
7.3095e-05
7.35492e-05
7.42814e-05
7.53358e-05
7.6609e-05
7.81158e-05
7.98148e-05
8.16211e-05
8.35501e-05
8.56268e-05
8.78507e-05
9.0103e-05
9.23515e-05
9.456e-05
9.67208e-05
9.88775e-05
0.000100985
0.000103023
0.000104935
0.000106296
0.000107134
0.000107959
0.000108772
0.000109573
0.000110361
0.000111136
0.000111901
0.000112656
0.000113402
0.000114135
0.000114853
0.000115558
0.00011625
0.000116929
0.000117596
0.000118251
0.000118894
0.000119526
0.000120147
0.000120757
0.000121356
0.000121941
0.000122512
0.000123069
0.00012361
0.000124135
0.000124642
0.000125131
0.000125599
0.000126044
0.000126466
0.000126862
0.00012723
0.000127567
0.000127871
0.00012814
0.00012837
0.00012856
0.000128706
0.000128805
0.000128845
0.000128832
0.000128765
0.000128643
0.000128462
0.000128219
0.000127911
0.000127537
0.000127094