/*--------------------------------*- C++ -*----------------------------------*\
| =========                 |                                                 |
| \\      /  F ield         | OpenFOAM: The Open Source CFD Toolbox           |
|  \\    /   O peration     | Version:  2112                                  |
|   \\  /    A nd           | Website:  www.openfoam.com                      |
|    \\/     M anipulation  |                                                 |
\*---------------------------------------------------------------------------*/
FoamFile
{
    version     2.0;
    format      ascii;
    arch        "LSB;label=32;scalar=64";
    class       volScalarField;
    location    "1225";
    object      omega;
}
// * * * * * * * * * * * * * * * * * * * * * * * * * * * * * * * * * * * * * //

dimensions      [0 0 -1 0 0 0 0];

internalField   nonuniform List<scalar> 
14751
(
100.012
100.015
100.005
99.9975
99.9918
99.987
99.9817
99.9789
99.9788
99.9788
99.9788
99.9867
100.003
100.017
100.027
100.035
100.04
100.044
100.049
100.048
100.042
100.036
100.03
100.018
99.9983
99.9816
99.9689
99.9615
99.9592
99.957
99.9547
99.9526
99.9505
99.9484
99.9463
99.9485
99.955
99.9617
99.9685
99.9817
100.003
100.022
100.036
100.045
100.047
100.049
100.051
100.053
100.056
100.058
100.06
100.06
100.058
100.056
100.054
100.051
100.049
100.047
100.045
100.037
100.022
100.004
99.9827
99.9697
99.9629
99.9563
99.9499
99.947
99.9475
99.9481
99.9486
99.9492
99.9497
99.9502
99.9508
99.9514
99.9521
99.9528
99.9535
99.9542
99.9548
99.9554
99.956
99.9584
99.9625
99.9667
99.9709
99.9779
99.9877
100.001
100.015
100.022
100.021
100.02
100.019
100.017
100.014
100.011
100.006
16.925
16.9217
16.9001
16.8677
16.8257
16.7794
16.7308
16.6806
16.6302
16.5797
16.5293
16.4804
16.4334
16.387
16.3415
16.297
16.2536
16.2119
16.1718
16.1328
16.0949
16.0587
16.0244
15.9912
15.959
15.929
15.9012
15.8758
15.8528
15.8314
15.8116
15.7933
15.7765
15.7611
15.7471
15.7348
15.7243
15.715
15.7068
15.7004
15.6958
15.692
15.6887
15.6856
15.6825
15.6802
15.6787
15.6779
15.6779
15.6787
15.6801
15.6821
15.6845
15.6877
15.6916
15.6963
15.7019
15.7082
15.7154
15.7228
15.7303
15.7383
15.7471
15.7579
15.7705
15.7844
15.7996
15.8165
15.8352
15.8553
15.877
15.9001
15.9249
15.9513
15.9794
16.0092
16.0407
16.074
16.109
16.1458
16.1842
16.2245
16.2662
16.3097
16.3548
16.401
16.4484
16.4969
16.5465
16.5967
16.6471
16.6963
16.7433
16.7883
16.8303
16.8671
16.8968
16.917
16.926
5.78493
5.78055
5.76238
5.73586
5.70222
5.66535
5.62665
5.58647
5.546
5.5055
5.46523
5.42567
5.38713
5.34944
5.31276
5.27724
5.24294
5.21011
5.17871
5.14867
5.11996
5.09277
5.06712
5.04287
5.01997
4.99863
4.97885
4.96064
4.94395
4.92858
4.91448
4.90162
4.88992
4.87934
4.86983
4.86145
4.85417
4.84772
4.84217
4.83768
4.8343
4.83165
4.82963
4.82816
4.82716
4.82678
4.82701
4.82784
4.82924
4.83121
4.83373
4.83677
4.84028
4.84436
4.84899
4.85418
4.85995
4.86631
4.87327
4.88074
4.88866
4.8972
4.90639
4.91646
4.92751
4.93938
4.95212
4.96583
4.9806
4.99637
5.01315
5.03102
5.04999
5.07012
5.09142
5.11391
5.13763
5.16262
5.18886
5.2164
5.24513
5.27518
5.30632
5.33859
5.37191
5.40611
5.44106
5.47673
5.51287
5.54929
5.58561
5.6215
5.65618
5.68908
5.71982
5.74625
5.76797
5.78261
5.78905
2.93991
2.93429
2.91844
2.89776
2.87162
2.84307
2.81376
2.7837
2.75355
2.72353
2.69374
2.66453
2.63614
2.60858
2.58195
2.55638
2.53188
2.50861
2.48652
2.46561
2.44586
2.42733
2.41
2.39386
2.37885
2.36501
2.35231
2.34074
2.33025
2.32076
2.31222
2.30461
2.29788
2.29197
2.28682
2.28246
2.27888
2.27612
2.27403
2.2726
2.27184
2.27162
2.2719
2.27264
2.2738
2.2754
2.27743
2.27988
2.28272
2.28595
2.28955
2.29351
2.2978
2.30245
2.30746
2.31281
2.31853
2.3246
2.33103
2.33783
2.34495
2.35245
2.36036
2.36873
2.37762
2.38698
2.39686
2.40727
2.41827
2.42986
2.44205
2.45487
2.46834
2.4825
2.49738
2.51289
2.52914
2.54616
2.56394
2.58251
2.60177
2.62186
2.64263
2.66413
2.6862
2.70874
2.73167
2.75491
2.77829
2.80166
2.82479
2.84752
2.86933
2.88981
2.90853
2.92431
2.93682
2.94451
2.94618
1.87662
1.87006
1.85575
1.83827
1.81669
1.79343
1.7698
1.74568
1.72177
1.69827
1.67548
1.65336
1.63206
1.61159
1.59198
1.57334
1.55567
1.53908
1.5235
1.50895
1.49538
1.4828
1.4712
1.46057
1.45085
1.44204
1.43411
1.42702
1.42075
1.41521
1.41039
1.40627
1.40281
1.40001
1.39787
1.3963
1.39529
1.39481
1.3948
1.39525
1.39613
1.3974
1.39903
1.40099
1.40326
1.40582
1.40867
1.4118
1.41519
1.41883
1.42271
1.42682
1.43114
1.43568
1.44044
1.44541
1.4506
1.456
1.46162
1.46748
1.47352
1.47981
1.48634
1.49314
1.50024
1.50763
1.51533
1.52335
1.53173
1.54045
1.54954
1.55901
1.56883
1.5791
1.58984
1.60113
1.61288
1.62512
1.63781
1.65098
1.66457
1.67863
1.69306
1.70787
1.72295
1.73824
1.75367
1.76916
1.78459
1.79984
1.81477
1.82927
1.84299
1.85562
1.86686
1.87592
1.88262
1.88566
1.88402
1.34502
1.3382
1.32523
1.30989
1.29144
1.27183
1.25217
1.23232
1.2129
1.19406
1.17595
1.1586
1.14211
1.1265
1.11185
1.09813
1.0853
1.0734
1.06237
1.0522
1.04286
1.03433
1.0266
1.01963
1.01339
1.00787
1.00302
0.99882
0.995247
0.992287
0.989887
0.988007
0.98662
0.985707
0.985242
0.985183
0.985518
0.986213
0.987235
0.988563
0.990186
0.99207
0.994197
0.996549
0.999097
1.00184
1.00477
1.00787
1.01113
1.01454
1.0181
1.0218
1.02563
1.02958
1.03366
1.03787
1.04221
1.04668
1.05128
1.05602
1.06088
1.0659
1.07108
1.07642
1.08196
1.08769
1.09362
1.09975
1.10612
1.11271
1.11951
1.12664
1.13413
1.14194
1.15007
1.15854
1.16733
1.17644
1.18585
1.19558
1.20556
1.21585
1.22635
1.23705
1.24788
1.2588
1.26973
1.28062
1.29137
1.30191
1.3121
1.3219
1.33105
1.33929
1.34643
1.35183
1.35536
1.35588
1.35267
1.01998
1.01361
1.00221
0.988941
0.973293
0.956852
0.940565
0.924334
0.908657
0.893645
0.879381
0.865885
0.853238
0.841433
0.830472
0.820356
0.811023
0.802508
0.794738
0.787706
0.781357
0.775675
0.770633
0.766205
0.762352
0.759053
0.756274
0.753991
0.752178
0.750809
0.749847
0.749266
0.74904
0.749147
0.749563
0.750261
0.751228
0.752436
0.753863
0.75549
0.757307
0.75929
0.761426
0.7637
0.766094
0.768603
0.771218
0.773928
0.776729
0.779611
0.78257
0.785603
0.788701
0.791868
0.795103
0.798405
0.801778
0.805222
0.808744
0.812351
0.816033
0.819812
0.823695
0.82769
0.831812
0.836064
0.840452
0.844978
0.849646
0.8545
0.85963
0.864991
0.870592
0.876425
0.882496
0.888805
0.895346
0.902123
0.909123
0.91635
0.92376
0.931382
0.939147
0.947045
0.955023
0.963035
0.971036
0.978985
0.986799
0.994426
1.00177
1.00879
1.0153
1.02107
1.02597
1.02943
1.03136
1.03082
1.02728
0.798285
0.792843
0.783277
0.772209
0.759318
0.745879
0.732713
0.719735
0.707343
0.695618
0.684606
0.674313
0.664786
0.656005
0.647948
0.640616
0.633943
0.627955
0.622578
0.617802
0.613572
0.60987
0.606669
0.603944
0.601662
0.599799
0.598328
0.597224
0.596464
0.596023
0.595874
0.595995
0.596365
0.596963
0.597769
0.598764
0.599936
0.601263
0.602727
0.604315
0.606015
0.607812
0.609695
0.611653
0.613672
0.615748
0.617873
0.62004
0.622246
0.624483
0.62675
0.629045
0.631363
0.633706
0.636077
0.638474
0.640903
0.643365
0.645868
0.648417
0.65101
0.653662
0.656381
0.659174
0.662053
0.665019
0.668077
0.671223
0.674518
0.678017
0.681694
0.685542
0.689566
0.693772
0.698161
0.702734
0.707492
0.712438
0.717561
0.72287
0.728326
0.733956
0.739707
0.745571
0.751509
0.757486
0.763469
0.76943
0.775302
0.781049
0.786592
0.791909
0.796845
0.801205
0.804878
0.807381
0.808646
0.8079
0.804703
0.639138
0.634856
0.627194
0.618303
0.608015
0.597334
0.586963
0.576825
0.567239
0.558263
0.549919
0.542204
0.535141
0.528704
0.522868
0.517626
0.512921
0.508766
0.505097
0.501902
0.499132
0.49677
0.49479
0.493172
0.491886
0.490912
0.490226
0.489806
0.489633
0.489684
0.48994
0.490381
0.490991
0.491752
0.492647
0.493663
0.494788
0.496005
0.4973
0.498663
0.500083
0.50155
0.503055
0.504588
0.506142
0.507711
0.509291
0.510875
0.512463
0.514049
0.515632
0.517213
0.518789
0.520362
0.521935
0.52351
0.525091
0.526681
0.528287
0.529915
0.531567
0.533254
0.534984
0.536763
0.5386
0.540497
0.542459
0.544507
0.546724
0.549077
0.551561
0.554182
0.556945
0.559858
0.562926
0.566149
0.569531
0.573077
0.576779
0.580648
0.584654
0.588822
0.593111
0.597519
0.602015
0.606575
0.611173
0.615792
0.620379
0.624905
0.629308
0.633572
0.637571
0.641135
0.644174
0.64628
0.647405
0.646904
0.644392
0.522013
0.518893
0.513
0.506087
0.498091
0.489795
0.481786
0.474004
0.4667
0.45992
0.453672
0.447947
0.442756
0.438074
0.433873
0.430148
0.426846
0.423977
0.421487
0.419361
0.417562
0.41607
0.414865
0.41393
0.41324
0.412777
0.412521
0.412455
0.41256
0.41282
0.413218
0.413739
0.414368
0.415092
0.415898
0.416773
0.417708
0.418689
0.419708
0.420753
0.421818
0.422894
0.423974
0.425053
0.426123
0.427181
0.428224
0.429249
0.430253
0.431235
0.432196
0.433135
0.434052
0.434951
0.435835
0.436705
0.437568
0.438427
0.439289
0.440159
0.441042
0.441947
0.442882
0.443851
0.444864
0.445922
0.447031
0.448278
0.449635
0.451099
0.452674
0.454369
0.45619
0.458147
0.460244
0.462483
0.464871
0.467413
0.470105
0.472958
0.475949
0.479103
0.482387
0.485803
0.489326
0.49294
0.496625
0.500369
0.50413
0.507885
0.511583
0.515213
0.518669
0.52181
0.524558
0.526575
0.527824
0.52776
0.52604
0.43443
0.432338
0.427961
0.422715
0.416617
0.41027
0.404159
0.398241
0.392715
0.38762
0.382957
0.378715
0.374899
0.371486
0.368452
0.365791
0.363459
0.361462
0.359755
0.358325
0.35714
0.356184
0.355441
0.354895
0.354525
0.354318
0.354256
0.354325
0.35451
0.354797
0.355173
0.355625
0.356142
0.356712
0.357325
0.357971
0.358642
0.359329
0.360023
0.360716
0.361404
0.362079
0.362736
0.363373
0.363983
0.364565
0.365118
0.365637
0.366126
0.366581
0.367005
0.367399
0.367764
0.368104
0.368423
0.368724
0.369013
0.369293
0.369572
0.369855
0.370149
0.37046
0.370796
0.371163
0.371567
0.372013
0.372549
0.373196
0.373936
0.374773
0.375714
0.376769
0.377946
0.379252
0.380694
0.382275
0.384001
0.385879
0.387907
0.390096
0.392427
0.394923
0.397559
0.400337
0.403239
0.406252
0.409362
0.412558
0.415805
0.419087
0.42236
0.425616
0.428768
0.431696
0.434337
0.43641
0.437878
0.438286
0.437326
0.367982
0.366721
0.363566
0.359653
0.355055
0.350236
0.345591
0.341095
0.33691
0.333068
0.329568
0.326399
0.323565
0.321045
0.318819
0.316882
0.315196
0.313767
0.312557
0.311554
0.310733
0.310079
0.30958
0.309221
0.308987
0.308865
0.308842
0.308906
0.309044
0.309245
0.309499
0.309795
0.310124
0.310477
0.310846
0.311224
0.311603
0.311976
0.312337
0.312681
0.313003
0.313299
0.313565
0.3138
0.314
0.314164
0.314293
0.314384
0.314439
0.31446
0.314448
0.314405
0.314334
0.314239
0.314124
0.313994
0.313854
0.313708
0.313564
0.313428
0.313305
0.313203
0.313129
0.313089
0.313092
0.313146
0.313315
0.313572
0.313918
0.314361
0.314908
0.315569
0.316351
0.317262
0.318307
0.31949
0.320817
0.322295
0.323923
0.32571
0.327642
0.32974
0.331982
0.334371
0.336894
0.339539
0.342295
0.345153
0.348085
0.351076
0.354092
0.357124
0.360102
0.362924
0.365538
0.36771
0.369401
0.37023
0.369921
0.316756
0.316129
0.313916
0.311026
0.307573
0.303913
0.300368
0.29693
0.29373
0.290797
0.288129
0.285719
0.283566
0.281656
0.279971
0.278506
0.277232
0.276151
0.275233
0.274467
0.273834
0.273321
0.272916
0.272609
0.272387
0.27224
0.272156
0.272127
0.272141
0.27219
0.272266
0.27236
0.272466
0.272576
0.272685
0.272785
0.272873
0.272943
0.27299
0.27301
0.273002
0.272961
0.272887
0.272778
0.272632
0.272451
0.272235
0.271983
0.271699
0.271384
0.271041
0.270673
0.270282
0.269875
0.269456
0.269028
0.268598
0.26817
0.267753
0.26735
0.266969
0.266617
0.2663
0.266025
0.265798
0.265662
0.265623
0.26567
0.265807
0.266044
0.266386
0.266844
0.267421
0.268125
0.268963
0.269936
0.271051
0.272313
0.273721
0.275285
0.276993
0.27886
0.280873
0.283031
0.285325
0.287745
0.290281
0.292927
0.295658
0.298462
0.301311
0.304198
0.307063
0.309825
0.312432
0.314694
0.316569
0.317732
0.317938
0.276544
0.276375
0.274863
0.272737
0.270135
0.267332
0.264595
0.261925
0.259433
0.257144
0.255056
0.253165
0.25147
0.249959
0.248619
0.247444
0.24641
0.245521
0.244749
0.244088
0.24352
0.243036
0.242626
0.242281
0.241991
0.241749
0.241544
0.241371
0.241219
0.241084
0.240957
0.240834
0.240708
0.240575
0.240429
0.240267
0.240086
0.239882
0.239651
0.239391
0.239102
0.238781
0.238428
0.238042
0.237626
0.237178
0.236701
0.236196
0.235667
0.235115
0.234543
0.233957
0.233359
0.232754
0.232147
0.231543
0.230947
0.230364
0.229802
0.229265
0.22876
0.228293
0.227871
0.227502
0.227193
0.226993
0.226878
0.226851
0.226916
0.227081
0.227353
0.227737
0.22824
0.228866
0.22962
0.230506
0.231527
0.232688
0.23399
0.235438
0.237025
0.238764
0.240642
0.242661
0.244811
0.247086
0.249478
0.251979
0.254571
0.257242
0.25997
0.262747
0.265526
0.268236
0.270833
0.273155
0.275157
0.276564
0.277153
0.244334
0.244483
0.243477
0.241906
0.239923
0.237741
0.235583
0.233458
0.23146
0.229613
0.227916
0.226367
0.224963
0.223696
0.222556
0.221538
0.220623
0.219813
0.219087
0.218439
0.217854
0.217324
0.216843
0.216405
0.216
0.215622
0.215265
0.214924
0.21459
0.214261
0.21393
0.213594
0.213248
0.21289
0.212515
0.212122
0.211708
0.211272
0.210811
0.210324
0.209812
0.209273
0.208709
0.20812
0.207508
0.206873
0.206219
0.205547
0.204861
0.204163
0.203458
0.202749
0.20204
0.201337
0.200642
0.199963
0.199303
0.198667
0.198062
0.197493
0.196966
0.196487
0.196061
0.195694
0.195414
0.195231
0.195132
0.19512
0.195201
0.195381
0.195665
0.196058
0.196564
0.197187
0.197932
0.198801
0.199796
0.200922
0.202179
0.203572
0.205096
0.20676
0.208555
0.210483
0.212536
0.214709
0.216994
0.219386
0.221869
0.224434
0.227062
0.229746
0.232446
0.235102
0.237673
0.240021
0.242098
0.243669
0.244527
0.217971
0.218328
0.217678
0.2165
0.214955
0.213211
0.211456
0.209706
0.208041
0.206485
0.205036
0.203694
0.202459
0.201323
0.200279
0.199323
0.198439
0.197631
0.196881
0.196184
0.195528
0.194909
0.194319
0.193756
0.193211
0.192682
0.192163
0.19165
0.191138
0.190624
0.190105
0.189577
0.189038
0.188487
0.18792
0.187337
0.186737
0.186119
0.185482
0.184827
0.184153
0.183462
0.182755
0.182032
0.181297
0.18055
0.179794
0.179033
0.178269
0.177505
0.176745
0.175993
0.175252
0.174528
0.173825
0.173146
0.172497
0.171883
0.171308
0.170777
0.170296
0.169871
0.169505
0.169205
0.169005
0.168891
0.168858
0.168912
0.169057
0.169297
0.169636
0.170079
0.170628
0.171287
0.172059
0.172946
0.173949
0.175073
0.176317
0.177686
0.179176
0.180793
0.182533
0.184395
0.186375
0.188467
0.190666
0.192968
0.195358
0.19783
0.200368
0.202965
0.205588
0.208183
0.210712
0.213057
0.215167
0.216837
0.217874
0.195905
0.19639
0.19598
0.195071
0.193825
0.192379
0.190893
0.189388
0.187934
0.186553
0.185247
0.184015
0.182858
0.181771
0.180748
0.179787
0.178877
0.178019
0.177201
0.176418
0.175663
0.17493
0.174215
0.173516
0.172828
0.172149
0.171475
0.170804
0.170132
0.169457
0.168778
0.168092
0.167399
0.166696
0.165983
0.16526
0.164526
0.163782
0.163027
0.162262
0.161489
0.160708
0.159921
0.15913
0.158337
0.157543
0.156752
0.155966
0.155188
0.154421
0.153669
0.152934
0.152221
0.151532
0.150873
0.150247
0.149658
0.14911
0.148608
0.148156
0.147759
0.14742
0.147146
0.146946
0.14684
0.146813
0.146866
0.147003
0.147227
0.147541
0.147949
0.148454
0.149059
0.149766
0.150577
0.151494
0.152519
0.153653
0.154898
0.156257
0.157725
0.159311
0.161009
0.16282
0.164739
0.166763
0.168889
0.171111
0.173418
0.175805
0.178259
0.180772
0.183317
0.185846
0.188322
0.19064
0.19275
0.194468
0.195615
0.177019
0.177572
0.177315
0.176579
0.175527
0.174272
0.172954
0.171597
0.170262
0.168973
0.167731
0.166538
0.165395
0.164301
0.16325
0.162243
0.161269
0.160332
0.159423
0.158539
0.157674
0.156823
0.155985
0.155159
0.15434
0.153529
0.152722
0.151919
0.151118
0.150318
0.149518
0.148718
0.147915
0.147111
0.146304
0.145495
0.144684
0.14387
0.143055
0.14224
0.141426
0.140614
0.139806
0.139004
0.13821
0.137425
0.136652
0.135893
0.135151
0.134428
0.133727
0.133051
0.132403
0.131786
0.131203
0.130658
0.130154
0.129695
0.129283
0.128924
0.128621
0.128376
0.128194
0.128098
0.128081
0.128136
0.128268
0.12848
0.128774
0.129153
0.129621
0.13018
0.130831
0.131578
0.132422
0.133365
0.134408
0.135553
0.136799
0.13815
0.139603
0.141163
0.142826
0.144593
0.146461
0.148426
0.150485
0.152635
0.154867
0.157174
0.159547
0.161979
0.164445
0.166903
0.169316
0.171592
0.173677
0.175407
0.176609
0.160506
0.161084
0.160913
0.16028
0.159343
0.1582
0.156974
0.155692
0.154411
0.153153
0.151923
0.150722
0.149553
0.148417
0.14731
0.146235
0.145183
0.144159
0.143155
0.142172
0.141204
0.14025
0.139308
0.138378
0.137457
0.136546
0.135643
0.134748
0.133861
0.132981
0.132109
0.131244
0.130385
0.129533
0.128687
0.127848
0.127016
0.126191
0.125374
0.124564
0.123764
0.122974
0.122197
0.121434
0.120685
0.119953
0.11924
0.118546
0.117875
0.117227
0.116606
0.116014
0.115452
0.114924
0.114432
0.113978
0.113566
0.113198
0.112877
0.112607
0.11239
0.112231
0.112132
0.112114
0.112163
0.112279
0.112466
0.112727
0.113064
0.113481
0.113981
0.114567
0.11524
0.116003
0.116858
0.117807
0.11885
0.119991
0.121227
0.122562
0.123993
0.125524
0.127153
0.128878
0.130697
0.132608
0.134606
0.136689
0.138849
0.14108
0.143375
0.145726
0.148113
0.150496
0.152839
0.155059
0.157101
0.158813
0.160033
0.14579
0.146361
0.146229
0.145646
0.144766
0.143678
0.142492
0.141237
0.139967
0.138703
0.137452
0.136218
0.135005
0.133814
0.132644
0.1315
0.130375
0.129275
0.128194
0.127133
0.126088
0.12506
0.124049
0.123054
0.122075
0.121111
0.120161
0.119227
0.118306
0.1174
0.11651
0.115635
0.114775
0.11393
0.1131
0.112285
0.111486
0.110701
0.109932
0.109178
0.10844
0.107718
0.107014
0.106327
0.10566
0.105013
0.104388
0.103785
0.103205
0.102651
0.102125
0.101626
0.101159
0.100723
0.100322
0.0999572
0.0996309
0.0993453
0.099103
0.0989066
0.0987589
0.0986631
0.0986264
0.0986563
0.0987441
0.0988916
0.0991017
0.0993777
0.0997227
0.10014
0.100634
0.101208
0.101865
0.102607
0.103437
0.104357
0.105368
0.106474
0.107673
0.108968
0.110357
0.111844
0.113426
0.115101
0.116867
0.11872
0.120657
0.122673
0.124762
0.126919
0.129135
0.131405
0.13371
0.136013
0.138279
0.140432
0.142415
0.144088
0.145295
0.132469
0.133014
0.132888
0.132319
0.131459
0.13039
0.129212
0.127957
0.126676
0.125392
0.124111
0.122841
0.121586
0.120349
0.119131
0.117938
0.116766
0.115621
0.114499
0.1134
0.112322
0.111267
0.110235
0.109226
0.108241
0.107279
0.10634
0.105424
0.104529
0.103656
0.102804
0.101974
0.101166
0.100378
0.0996103
0.0988636
0.0981375
0.097432
0.0967472
0.0960833
0.0954401
0.0948168
0.0942123
0.093627
0.0930614
0.092516
0.0919916
0.0914889
0.0910088
0.0905524
0.0901208
0.0897153
0.0893371
0.0889876
0.0886685
0.0883811
0.0881275
0.0879092
0.0877284
0.0875873
0.087488
0.0874326
0.0874347
0.0874871
0.0875881
0.0877401
0.0879457
0.0882078
0.0885296
0.0889148
0.0893671
0.0898909
0.0904905
0.0911709
0.091936
0.0927853
0.0937217
0.0947491
0.0958698
0.0970865
0.0983979
0.0998075
0.101313
0.102914
0.104606
0.106387
0.10825
0.110192
0.112203
0.11428
0.116413
0.118598
0.120815
0.123031
0.125212
0.127286
0.129196
0.130813
0.131982
0.120288
0.120793
0.120652
0.12008
0.119222
0.118156
0.116976
0.115716
0.114426
0.113127
0.11183
0.110543
0.109272
0.10802
0.106789
0.105586
0.104411
0.103268
0.102156
0.101074
0.10002
0.0989948
0.0979985
0.0970318
0.0960947
0.0951877
0.0943109
0.0934642
0.0926465
0.0918558
0.0910896
0.0903475
0.0896285
0.0889325
0.0882589
0.0876073
0.0869774
0.086369
0.0857821
0.0852172
0.0846754
0.0841556
0.0836534
0.083169
0.0827026
0.0822544
0.081825
0.0814147
0.0810243
0.0806544
0.0803059
0.0799797
0.0796768
0.0793984
0.0791457
0.07892
0.0787227
0.0785553
0.0784196
0.0783175
0.0782508
0.0782217
0.0782409
0.0783001
0.0784
0.0785426
0.0787303
0.0789656
0.0792513
0.0795905
0.0799863
0.0804427
0.0809639
0.0815559
0.0822283
0.0829767
0.0838033
0.0847133
0.0857116
0.0868047
0.0879961
0.0892842
0.0906703
0.0921555
0.0937374
0.095412
0.0971743
0.0990176
0.100933
0.102915
0.104953
0.107041
0.10916
0.111279
0.113363
0.115346
0.11717
0.118714
0.119829
0.109106
0.109564
0.109403
0.108825
0.107968
0.10691
0.105738
0.10449
0.103212
0.101928
0.100647
0.0993809
0.0981358
0.0969166
0.0957256
0.0945671
0.0934422
0.092356
0.0913071
0.0902966
0.0893226
0.0883821
0.0874727
0.0865946
0.0857477
0.0849325
0.084149
0.0833979
0.0826802
0.081993
0.0813296
0.0806894
0.0800714
0.079475
0.0788995
0.0783441
0.0778083
0.0772915
0.076793
0.0763123
0.075849
0.0754023
0.0749722
0.0745586
0.0741617
0.0737814
0.0734182
0.0730723
0.0727442
0.0724344
0.0721437
0.0718727
0.0716223
0.0713935
0.0711872
0.0710045
0.0708468
0.0707152
0.0706114
0.0705369
0.0704935
0.0704835
0.0705137
0.0705781
0.0706779
0.0708152
0.0709919
0.0712104
0.071473
0.0717823
0.0721408
0.0725512
0.0730163
0.073539
0.0741214
0.0747671
0.0754794
0.0762628
0.0771224
0.0780662
0.0791078
0.0802391
0.0814637
0.0827877
0.0842147
0.0857392
0.087357
0.0890636
0.0908498
0.0927075
0.0946266
0.0965968
0.0986009
0.100606
0.102579
0.104456
0.10618
0.107638
0.108685
0.0988785
0.0992902
0.0991141
0.0985398
0.0977003
0.096672
0.0955362
0.0943317
0.0931038
0.0918762
0.0906595
0.0894623
0.0882924
0.0871557
0.086056
0.0849964
0.0839713
0.0829852
0.0820375
0.0811301
0.0802648
0.079436
0.078636
0.0778647
0.0771214
0.0764061
0.0757179
0.0750562
0.0744196
0.0738069
0.073217
0.0726493
0.0721027
0.0715764
0.0710696
0.0705815
0.0701111
0.0696575
0.0692199
0.068797
0.0683873
0.0679906
0.0676097
0.0672445
0.0668951
0.0665615
0.0662438
0.0659423
0.0656573
0.0653893
0.0651389
0.0649066
0.0646931
0.0644993
0.0643261
0.0641743
0.0640452
0.0639398
0.0638593
0.0638053
0.0637791
0.063785
0.0638243
0.0638943
0.0639964
0.0641325
0.0643044
0.0645142
0.0647639
0.0650557
0.0653917
0.0657741
0.0662042
0.066683
0.0672081
0.0677874
0.068425
0.069124
0.0698868
0.0707169
0.0716162
0.072591
0.073646
0.0747888
0.0760329
0.0773726
0.0788043
0.0803301
0.0819467
0.0836405
0.0854047
0.0872277
0.08909
0.0909597
0.0928012
0.0945559
0.0961661
0.0975256
0.098498
0.0896234
0.0899948
0.0898171
0.0892669
0.0884706
0.0875034
0.0864399
0.0853184
0.0841811
0.0830521
0.0819429
0.0808595
0.0798037
0.0787816
0.0777989
0.0768643
0.0759599
0.0750887
0.0742493
0.0734412
0.0726626
0.071912
0.0711884
0.0704912
0.0698197
0.0691731
0.0685502
0.0679492
0.0673672
0.0668044
0.0662639
0.0657448
0.0652463
0.0647673
0.0643071
0.0638647
0.0634393
0.0630299
0.0626357
0.0622558
0.0618898
0.0615379
0.0612008
0.0608786
0.0605711
0.0602784
0.0600004
0.0597374
0.0594896
0.0592574
0.0590413
0.0588418
0.0586594
0.0584949
0.0583491
0.0582227
0.0581168
0.0580323
0.0579702
0.0579318
0.0579182
0.0579355
0.0579805
0.0580532
0.0581549
0.0582874
0.0584524
0.0586515
0.0588868
0.05916
0.059473
0.0598276
0.0602253
0.0606675
0.0611554
0.0616935
0.0622842
0.0629297
0.0636309
0.0643879
0.0651952
0.0660671
0.067007
0.0680175
0.0691006
0.070259
0.0714969
0.072821
0.0742405
0.0757365
0.0773086
0.0789523
0.0806417
0.082349
0.084038
0.0856517
0.0871335
0.0883852
0.0892785
0.0813822
0.0817229
0.0815609
0.0810566
0.0803286
0.07945
0.0784898
0.077484
0.0764654
0.0754572
0.0744733
0.0735198
0.0725881
0.0716814
0.0708015
0.0699502
0.0691261
0.0683309
0.0675625
0.0668187
0.0660953
0.0653939
0.0647185
0.0640688
0.0634438
0.0628429
0.0622648
0.0617084
0.0611725
0.0606574
0.0601638
0.0596908
0.0592375
0.058803
0.0583863
0.0579865
0.0576029
0.0572346
0.056881
0.0565413
0.0562155
0.0559035
0.0556054
0.0553211
0.0550505
0.0547935
0.0545501
0.0543205
0.0541048
0.0539033
0.0537165
0.0535448
0.0533886
0.0532486
0.0531255
0.0530199
0.0529328
0.052865
0.0528174
0.0527912
0.0527875
0.0528114
0.0528596
0.0529326
0.053032
0.0531592
0.0533157
0.0535031
0.0537231
0.0539774
0.0542677
0.0545958
0.0549632
0.0553717
0.0558233
0.0563206
0.0568656
0.05746
0.0581046
0.0588004
0.0595481
0.0603544
0.0612205
0.0621461
0.0631249
0.064164
0.0652687
0.0664385
0.0676717
0.0689706
0.0703379
0.0717844
0.0732786
0.0747996
0.076318
0.0777747
0.0791157
0.0802521
0.0810653
0.0741731
0.0744913
0.0743588
0.0739154
0.0732703
0.0724911
0.0716418
0.0707583
0.0698597
0.0689639
0.0680789
0.0672089
0.066356
0.0655215
0.0647043
0.0639014
0.0631243
0.0623746
0.0616505
0.0609508
0.0602742
0.0596215
0.0589942
0.0583915
0.0578128
0.0572574
0.0567244
0.0562129
0.0557223
0.0552525
0.0548032
0.0543736
0.0539626
0.0535695
0.0531932
0.0528331
0.0524883
0.052158
0.0518417
0.0515389
0.0512493
0.0509728
0.0507093
0.0504585
0.0502203
0.0499945
0.0497812
0.0495805
0.0493925
0.0492174
0.0490556
0.0489074
0.0487733
0.0486538
0.0485495
0.0484611
0.0483892
0.0483348
0.0482986
0.0482817
0.0482851
0.0483129
0.0483622
0.0484341
0.0485296
0.0486502
0.0487973
0.0489724
0.049177
0.0494126
0.049681
0.0499837
0.0503224
0.050699
0.0511153
0.0515733
0.0520747
0.052621
0.0532135
0.0538538
0.0545435
0.0552865
0.0560838
0.0569356
0.0578414
0.0588038
0.059823
0.0608933
0.0620052
0.0631716
0.0643895
0.0656549
0.0669619
0.0682945
0.0696377
0.0709319
0.0721273
0.0731458
0.0738797
0.0679508
0.0682476
0.0681454
0.0677613
0.067195
0.0665036
0.0657402
0.0649335
0.0641093
0.0632818
0.0624547
0.0616312
0.0608229
0.0600313
0.0592573
0.0585029
0.0577735
0.0570705
0.0563928
0.0557398
0.0551109
0.0545064
0.0539263
0.05337
0.0528368
0.0523261
0.0518372
0.0513695
0.0509223
0.0504952
0.0500875
0.0496984
0.0493269
0.0489722
0.0486334
0.0483098
0.0480006
0.0477052
0.0474229
0.0471535
0.0468964
0.0466515
0.0464185
0.0461972
0.0459874
0.045789
0.0456019
0.0454263
0.0452621
0.0451097
0.0449692
0.0448411
0.0447256
0.0446233
0.0445346
0.0444602
0.0444008
0.044357
0.0443296
0.0443197
0.0443282
0.044358
0.0444071
0.0444765
0.0445672
0.0446806
0.0448178
0.0449804
0.0451696
0.0453871
0.0456342
0.0459127
0.0462241
0.0465702
0.0469527
0.0473733
0.0478334
0.0483348
0.0488787
0.0494669
0.0501012
0.0507845
0.0515177
0.052302
0.0531381
0.0540269
0.0549674
0.0559561
0.0569896
0.0580701
0.0591912
0.0603384
0.0615194
0.0627164
0.0639061
0.0650527
0.0661137
0.0670224
0.0676826
0.0625798
0.0628476
0.062751
0.0623968
0.0618747
0.0612346
0.0605206
0.0597561
0.0589739
0.0581875
0.0574031
0.0566262
0.0558638
0.0551179
0.0543906
0.053685
0.0530038
0.0523483
0.0517179
0.0511122
0.0505307
0.0499731
0.0494391
0.0489278
0.0484389
0.0479715
0.0475252
0.0470993
0.0466931
0.0463059
0.0459369
0.0455855
0.0452505
0.0449313
0.044627
0.0443369
0.0440603
0.0437965
0.0435451
0.0433055
0.0430775
0.0428606
0.0426546
0.0424592
0.0422744
0.0420999
0.0419356
0.0417817
0.0416382
0.0415053
0.0413831
0.041272
0.0411723
0.0410845
0.0410089
0.0409461
0.0408967
0.0408614
0.0408408
0.040836
0.0408481
0.0408787
0.0409265
0.0409926
0.0410779
0.0411835
0.0413108
0.041461
0.0416352
0.0418351
0.042062
0.0423174
0.0426028
0.0429198
0.0432701
0.0436552
0.0440765
0.0445355
0.0450338
0.045573
0.0461549
0.0467819
0.0474553
0.0481764
0.0489464
0.0497655
0.0506327
0.0515459
0.0525028
0.0535022
0.0545393
0.055608
0.0567053
0.057812
0.0588984
0.0599435
0.0609093
0.0617362
0.0623365
0.0578148
0.0580509
0.0579451
0.0576017
0.0571009
0.0564906
0.0558113
0.0550888
0.0543494
0.0536065
0.0528674
0.0521377
0.0514224
0.0507239
0.0500446
0.0493876
0.0487545
0.0481465
0.0475632
0.0470042
0.0464689
0.0459568
0.0454672
0.0449994
0.0445528
0.0441268
0.0437209
0.0433344
0.0429664
0.0426164
0.0422834
0.0419667
0.0416654
0.0413788
0.041106
0.0408464
0.0405994
0.0403642
0.0401405
0.0399277
0.0397254
0.0395334
0.0393513
0.0391788
0.0390159
0.0388623
0.038718
0.038583
0.0384574
0.0383412
0.0382348
0.0381383
0.038052
0.0379764
0.0379117
0.0378586
0.0378174
0.0377888
0.0377735
0.037772
0.037787
0.0378174
0.0378632
0.0379254
0.0380049
0.0381028
0.0382202
0.0383582
0.0385181
0.0387011
0.0389086
0.039142
0.0394027
0.0396923
0.0400121
0.0403636
0.0407483
0.0411676
0.041623
0.042116
0.0426485
0.0432225
0.0438396
0.0445013
0.0452087
0.045962
0.0467603
0.0476023
0.0484857
0.0494086
0.0503677
0.0513587
0.0523754
0.0534008
0.0544128
0.0553851
0.0562808
0.0570446
0.0575953
0.0534957
0.0537039
0.0535938
0.0532631
0.0527858
0.0522072
0.0515651
0.0508848
0.0501891
0.0494912
0.0487985
0.0481163
0.0474486
0.046798
0.0461669
0.0455578
0.0449722
0.0444109
0.0438737
0.0433601
0.0428693
0.0424008
0.0419535
0.041527
0.0411206
0.0407337
0.0403657
0.0400159
0.0396836
0.0393679
0.039068
0.0387833
0.0385129
0.038256
0.038012
0.0377801
0.0375597
0.0373503
0.0371514
0.0369625
0.0367833
0.0366133
0.0364522
0.0363
0.0361563
0.036021
0.0358942
0.0357757
0.0356656
0.0355641
0.0354712
0.0353873
0.0353125
0.0352472
0.0351918
0.0351467
0.0351123
0.0350892
0.035078
0.0350793
0.0350955
0.035125
0.0351684
0.0352265
0.0353001
0.0353903
0.035498
0.0356243
0.0357703
0.0359372
0.0361263
0.0363389
0.0365763
0.0368399
0.0371311
0.0374511
0.0378013
0.0381833
0.0385983
0.0390479
0.0395339
0.0400581
0.0406222
0.0412278
0.041876
0.0425671
0.0433005
0.0440748
0.0448882
0.0457388
0.0466238
0.0475395
0.0484791
0.0494276
0.0503654
0.0512653
0.0520923
0.0527954
0.0532996
0.0495852
0.0497694
0.049658
0.0493419
0.0488897
0.0483442
0.0477405
0.0471027
0.0464513
0.0457989
0.0451529
0.0445181
0.0438978
0.0432946
0.0427109
0.0421487
0.0416092
0.0410933
0.0406005
0.0401304
0.0396821
0.0392549
0.0388478
0.0384602
0.0380915
0.0377412
0.0374085
0.0370928
0.0367933
0.0365092
0.0362398
0.0359843
0.0357421
0.0355123
0.0352943
0.0350874
0.0348912
0.0347049
0.0345283
0.0343607
0.0342019
0.0340514
0.0339091
0.0337747
0.033648
0.0335289
0.0334173
0.0333133
0.0332168
0.0331279
0.0330468
0.0329737
0.0329088
0.0328524
0.0328049
0.0327665
0.0327378
0.0327192
0.0327113
0.0327146
0.032731
0.0327593
0.0328
0.0328538
0.0329216
0.0330042
0.0331026
0.0332177
0.0333505
0.0335023
0.033674
0.033867
0.0340825
0.0343216
0.0345858
0.0348763
0.0351943
0.0355412
0.0359183
0.0363272
0.0367693
0.0372468
0.0377611
0.0383139
0.0389062
0.0395386
0.0402105
0.0409208
0.0416677
0.0424494
0.0432638
0.0441073
0.0449732
0.045848
0.0467135
0.0475432
0.0483042
0.0489498
0.0494105
0.0460498
0.0462133
0.046103
0.045803
0.0453771
0.0448655
0.0443006
0.0437052
0.043098
0.0424911
0.0418914
0.0413031
0.0407294
0.0401726
0.0396348
0.0391179
0.0386229
0.0381504
0.0377
0.0372712
0.036863
0.0364747
0.0361053
0.0357542
0.0354207
0.0351043
0.0348043
0.03452
0.0342507
0.0339956
0.033754
0.0335253
0.0333087
0.0331034
0.032909
0.0327248
0.0325502
0.0323848
0.032228
0.0320795
0.0319389
0.0318059
0.0316801