/*--------------------------------*- C++ -*----------------------------------*\
| =========                 |                                                 |
| \\      /  F ield         | OpenFOAM: The Open Source CFD Toolbox           |
|  \\    /   O peration     | Version:  2112                                  |
|   \\  /    A nd           | Website:  www.openfoam.com                      |
|    \\/     M anipulation  |                                                 |
\*---------------------------------------------------------------------------*/
FoamFile
{
    version     2.0;
    format      ascii;
    arch        "LSB;label=32;scalar=64";
    class       volScalarField;
    location    "1225";
    object      p;
}
// * * * * * * * * * * * * * * * * * * * * * * * * * * * * * * * * * * * * * //

dimensions      [0 2 -2 0 0 0 0];

internalField   nonuniform List<scalar> 
14751
(
-8.9591e-05
-8.75387e-05
-8.49102e-05
-8.24695e-05
-7.98409e-05
-7.72004e-05
-7.45692e-05
-7.19371e-05
-6.9357e-05
-6.68409e-05
-6.44173e-05
-6.20966e-05
-5.99033e-05
-5.78493e-05
-5.59419e-05
-5.41996e-05
-5.26148e-05
-5.12054e-05
-4.99619e-05
-4.88944e-05
-4.79945e-05
-4.7263e-05
-4.66939e-05
-4.62861e-05
-4.60314e-05
-4.59253e-05
-4.59619e-05
-4.6134e-05
-4.64358e-05
-4.68602e-05
-4.74004e-05
-4.80501e-05
-4.88024e-05
-4.96509e-05
-5.05895e-05
-5.16106e-05
-5.27097e-05
-5.38797e-05
-5.51158e-05
-5.64103e-05
-5.77595e-05
-5.91571e-05
-6.05973e-05
-6.20767e-05
-6.35881e-05
-6.51276e-05
-6.66905e-05
-6.82717e-05
-6.98671e-05
-7.14719e-05
-7.30818e-05
-7.46934e-05
-7.63014e-05
-7.79027e-05
-7.94933e-05
-8.10692e-05
-8.26275e-05
-8.4164e-05
-8.56754e-05
-8.71602e-05
-8.86128e-05
-9.00322e-05
-9.14152e-05
-9.27574e-05
-9.40587e-05
-9.53154e-05
-9.65258e-05
-9.76862e-05
-9.87961e-05
-9.98526e-05
-0.000100854
-0.000101797
-0.000102681
-0.000103503
-0.000104261
-0.000104953
-0.000105574
-0.000106124
-0.000106596
-0.000106994
-0.000107302
-0.000107528
-0.000107656
-0.000107689
-0.000107616
-0.000107433
-0.00010713
-0.000106704
-0.000106142
-0.000105444
-0.000104591
-0.000103589
-0.000102429
-0.000101089
-9.96135e-05
-9.79368e-05
-9.60989e-05
-9.41019e-05
-9.22343e-05
-8.95914e-05
-8.7539e-05
-8.49107e-05
-8.24701e-05
-7.98416e-05
-7.72012e-05
-7.457e-05
-7.1938e-05
-6.93579e-05
-6.68418e-05
-6.44183e-05
-6.20977e-05
-5.99043e-05
-5.78504e-05
-5.5943e-05
-5.42007e-05
-5.2616e-05
-5.12066e-05
-4.99632e-05
-4.88957e-05
-4.79958e-05
-4.72643e-05
-4.66952e-05
-4.62874e-05
-4.60326e-05
-4.59266e-05
-4.59631e-05
-4.6135e-05
-4.64368e-05
-4.68611e-05
-4.74013e-05
-4.80509e-05
-4.88031e-05
-4.96515e-05
-5.05901e-05
-5.1611e-05
-5.271e-05
-5.388e-05
-5.5116e-05
-5.64104e-05
-5.77595e-05
-5.91571e-05
-6.05972e-05
-6.20765e-05
-6.35878e-05
-6.51273e-05
-6.66901e-05
-6.82712e-05
-6.98666e-05
-7.14713e-05
-7.30812e-05
-7.46927e-05
-7.63007e-05
-7.79019e-05
-7.94924e-05
-8.10683e-05
-8.26266e-05
-8.41631e-05
-8.56745e-05
-8.71592e-05
-8.86117e-05
-9.00312e-05
-9.14141e-05
-9.27563e-05
-9.40576e-05
-9.53142e-05
-9.65246e-05
-9.7685e-05
-9.87949e-05
-9.98514e-05
-0.000100852
-0.000101796
-0.00010268
-0.000103502
-0.00010426
-0.000104952
-0.000105573
-0.000106123
-0.000106595
-0.000106993
-0.000107301
-0.000107526
-0.000107655
-0.000107688
-0.000107615
-0.000107432
-0.000107129
-0.000106703
-0.000106141
-0.000105444
-0.00010459
-0.000103588
-0.000102429
-0.000101088
-9.96131e-05
-9.79367e-05
-9.60989e-05
-9.41019e-05
-9.22344e-05
-8.95916e-05
-8.754e-05
-8.49117e-05
-8.24715e-05
-7.98432e-05
-7.72028e-05
-7.45716e-05
-7.19394e-05
-6.93592e-05
-6.6843e-05
-6.44194e-05
-6.20986e-05
-5.99052e-05
-5.78512e-05
-5.59438e-05
-5.42015e-05
-5.26168e-05
-5.12076e-05
-4.99643e-05
-4.88969e-05
-4.79971e-05
-4.72656e-05
-4.66966e-05
-4.62888e-05
-4.6034e-05
-4.59279e-05
-4.59644e-05
-4.61363e-05
-4.6438e-05
-4.68622e-05
-4.74023e-05
-4.80518e-05
-4.88038e-05
-4.96522e-05
-5.05906e-05
-5.16115e-05
-5.27104e-05
-5.38803e-05
-5.51162e-05
-5.64105e-05
-5.77594e-05
-5.91569e-05
-6.05969e-05
-6.20761e-05
-6.35873e-05
-6.51267e-05
-6.66895e-05
-6.82705e-05
-6.98658e-05
-7.14705e-05
-7.30802e-05
-7.46917e-05
-7.62996e-05
-7.79008e-05
-7.94913e-05
-8.10671e-05
-8.26253e-05
-8.41618e-05
-8.56731e-05
-8.71578e-05
-8.86103e-05
-9.00297e-05
-9.14126e-05
-9.27548e-05
-9.4056e-05
-9.53126e-05
-9.6523e-05
-9.76833e-05
-9.87932e-05
-9.98497e-05
-0.000100851
-0.000101794
-0.000102678
-0.0001035
-0.000104258
-0.00010495
-0.000105571
-0.000106121
-0.000106594
-0.000106991
-0.000107299
-0.000107525
-0.000107654
-0.000107687
-0.000107614
-0.000107431
-0.000107128
-0.000106702
-0.000106141
-0.000105443
-0.000104589
-0.000103588
-0.000102428
-0.000101088
-9.96127e-05
-9.79364e-05
-9.60989e-05
-9.41016e-05
-9.22354e-05
-8.95919e-05
-8.75418e-05
-8.49135e-05
-8.24739e-05
-7.9846e-05
-7.72054e-05
-7.4574e-05
-7.19415e-05
-6.9361e-05
-6.68445e-05
-6.44207e-05
-6.20997e-05
-5.99061e-05
-5.7852e-05
-5.59445e-05
-5.42023e-05
-5.26176e-05
-5.12085e-05
-4.99653e-05
-4.88981e-05
-4.79984e-05
-4.72671e-05
-4.66982e-05
-4.62904e-05
-4.60356e-05
-4.59295e-05
-4.59659e-05
-4.61377e-05
-4.64393e-05
-4.68635e-05
-4.74034e-05
-4.80528e-05
-4.88047e-05
-4.96529e-05
-5.05912e-05
-5.16119e-05
-5.27106e-05
-5.38803e-05
-5.51161e-05
-5.64102e-05
-5.77591e-05
-5.91564e-05
-6.05963e-05
-6.20753e-05
-6.35864e-05
-6.51257e-05
-6.66883e-05
-6.82692e-05
-6.98645e-05
-7.1469e-05
-7.30786e-05
-7.469e-05
-7.62979e-05
-7.7899e-05
-7.94894e-05
-8.10651e-05
-8.26233e-05
-8.41597e-05
-8.56709e-05
-8.71556e-05
-8.8608e-05
-9.00274e-05
-9.14102e-05
-9.27524e-05
-9.40537e-05
-9.53102e-05
-9.65206e-05
-9.76809e-05
-9.87908e-05
-9.98473e-05
-0.000100848
-0.000101792
-0.000102676
-0.000103498
-0.000104256
-0.000104948
-0.000105569
-0.000106119
-0.000106591
-0.000106989
-0.000107297
-0.000107523
-0.000107652
-0.000107685
-0.000107613
-0.00010743
-0.000107127
-0.000106701
-0.00010614
-0.000105442
-0.000104589
-0.000103587
-0.000102428
-0.000101087
-9.96126e-05
-9.79365e-05
-9.60992e-05
-9.41013e-05
-9.2238e-05
-8.95928e-05
-8.75448e-05
-8.49168e-05
-8.24779e-05
-7.98506e-05
-7.72097e-05
-7.45783e-05
-7.19454e-05
-6.93645e-05
-6.68476e-05
-6.44235e-05
-6.21023e-05
-5.99084e-05
-5.7854e-05
-5.59463e-05
-5.42041e-05
-5.26194e-05
-5.12104e-05
-4.99674e-05
-4.89003e-05
-4.80008e-05
-4.72696e-05
-4.67006e-05
-4.62928e-05
-4.6038e-05
-4.59318e-05
-4.59681e-05
-4.61397e-05
-4.64411e-05
-4.6865e-05
-4.74048e-05
-4.80539e-05
-4.88056e-05
-4.96535e-05
-5.05915e-05
-5.1612e-05
-5.27104e-05
-5.38799e-05
-5.51154e-05
-5.64093e-05
-5.77579e-05
-5.9155e-05
-6.05947e-05
-6.20735e-05
-6.35844e-05
-6.51235e-05
-6.6686e-05
-6.82667e-05
-6.98618e-05
-7.14662e-05
-7.30757e-05
-7.4687e-05
-7.62947e-05
-7.78957e-05
-7.9486e-05
-8.10617e-05
-8.26198e-05
-8.41561e-05
-8.56673e-05
-8.71519e-05
-8.86043e-05
-9.00236e-05
-9.14064e-05
-9.27486e-05
-9.40498e-05
-9.53063e-05
-9.65167e-05
-9.7677e-05
-9.87869e-05
-9.98434e-05
-0.000100844
-0.000101788
-0.000102672
-0.000103494
-0.000104252
-0.000104944
-0.000105565
-0.000106116
-0.000106588
-0.000106986
-0.000107294
-0.000107521
-0.00010765
-0.000107683
-0.000107611
-0.000107429
-0.000107126
-0.0001067
-0.000106139
-0.000105442
-0.000104589
-0.000103587
-0.000102428
-0.000101087
-9.96131e-05
-9.79373e-05
-9.61003e-05
-9.41011e-05
-9.22426e-05
-8.95951e-05
-8.75498e-05
-8.49223e-05
-8.24842e-05
-7.98577e-05
-7.72166e-05
-7.4585e-05
-7.19517e-05
-6.93703e-05
-6.6853e-05
-6.44284e-05
-6.21068e-05
-5.99125e-05
-5.78578e-05
-5.59497e-05
-5.42073e-05
-5.26225e-05
-5.12135e-05
-4.99706e-05
-4.89036e-05
-4.80041e-05
-4.72729e-05
-4.67039e-05
-4.62959e-05
-4.60409e-05
-4.59345e-05
-4.59704e-05
-4.61418e-05
-4.64429e-05
-4.68665e-05
-4.74058e-05
-4.80546e-05
-4.88059e-05
-4.96535e-05
-5.05911e-05
-5.16111e-05
-5.27093e-05
-5.38784e-05
-5.51135e-05
-5.64071e-05
-5.77554e-05
-5.91522e-05
-6.05916e-05
-6.20702e-05
-6.35808e-05
-6.51197e-05
-6.66819e-05
-6.82625e-05
-6.98574e-05
-7.14616e-05
-7.3071e-05
-7.46821e-05
-7.62897e-05
-7.78906e-05
-7.94808e-05
-8.10564e-05
-8.26144e-05
-8.41507e-05
-8.56619e-05
-8.71464e-05
-8.85988e-05
-9.00181e-05
-9.14009e-05
-9.27431e-05
-9.40443e-05
-9.53008e-05
-9.65112e-05
-9.76716e-05
-9.87815e-05
-9.98381e-05
-0.000100839
-0.000101783
-0.000102667
-0.000103489
-0.000104247
-0.000104939
-0.000105561
-0.000106111
-0.000106584
-0.000106982
-0.000107291
-0.000107517
-0.000107647
-0.00010768
-0.000107609
-0.000107427
-0.000107125
-0.000106699
-0.000106139
-0.000105442
-0.000104589
-0.000103588
-0.000102429
-0.000101088
-9.96146e-05
-9.79392e-05
-9.61027e-05
-9.41019e-05
-9.22498e-05
-8.95995e-05
-8.75571e-05
-8.49305e-05
-8.24931e-05
-7.98677e-05
-7.72264e-05
-7.45946e-05
-7.19607e-05
-6.93786e-05
-6.68606e-05
-6.44354e-05
-6.21132e-05
-5.99183e-05
-5.7863e-05
-5.59544e-05
-5.42116e-05
-5.26265e-05
-5.12173e-05
-4.99743e-05
-4.89072e-05
-4.80076e-05
-4.72762e-05
-4.6707e-05
-4.62987e-05
-4.60434e-05
-4.59366e-05
-4.59722e-05
-4.61431e-05
-4.64437e-05
-4.68669e-05
-4.74057e-05
-4.80541e-05
-4.88049e-05
-4.9652e-05
-5.05891e-05
-5.16088e-05
-5.27065e-05
-5.38752e-05
-5.51099e-05
-5.64031e-05
-5.77511e-05
-5.91476e-05
-6.05867e-05
-6.2065e-05
-6.35754e-05
-6.5114e-05
-6.66761e-05
-6.82564e-05
-6.98511e-05
-7.14552e-05
-7.30645e-05
-7.46755e-05
-7.6283e-05
-7.78838e-05
-7.9474e-05
-8.10495e-05
-8.26075e-05
-8.41437e-05
-8.56549e-05
-8.71394e-05
-8.85919e-05
-9.00112e-05
-9.1394e-05
-9.27362e-05
-9.40375e-05
-9.52941e-05
-9.65045e-05
-9.7665e-05
-9.8775e-05
-9.98316e-05
-0.000100833
-0.000101777
-0.000102661
-0.000103483
-0.000104241
-0.000104933
-0.000105555
-0.000106106
-0.000106579
-0.000106977
-0.000107286
-0.000107513
-0.000107644
-0.000107678
-0.000107607
-0.000107425
-0.000107124
-0.000106699
-0.000106139
-0.000105443
-0.000104591
-0.00010359
-0.000102431
-0.000101091
-9.96178e-05
-9.79431e-05
-9.6107e-05
-9.41042e-05
-9.22598e-05
-8.96065e-05
-8.75672e-05
-8.49419e-05
-8.2505e-05
-7.98808e-05
-7.72393e-05
-7.4607e-05
-7.19725e-05
-6.93894e-05
-6.68706e-05
-6.44445e-05
-6.21214e-05
-5.99255e-05
-5.78693e-05
-5.59598e-05
-5.42164e-05
-5.26307e-05
-5.12212e-05
-4.99778e-05
-4.89103e-05
-4.80105e-05
-4.72788e-05
-4.67092e-05
-4.63005e-05
-4.60446e-05
-4.59374e-05
-4.59724e-05
-4.61428e-05
-4.64429e-05
-4.68654e-05
-4.74038e-05
-4.80516e-05
-4.88018e-05
-4.96484e-05
-5.05851e-05
-5.16043e-05
-5.27015e-05
-5.38698e-05
-5.51042e-05
-5.6397e-05
-5.77447e-05
-5.91408e-05
-6.05797e-05
-6.20577e-05
-6.35679e-05
-6.51063e-05
-6.66682e-05
-6.82484e-05
-6.98431e-05
-7.14471e-05
-7.30562e-05
-7.46672e-05
-7.62747e-05
-7.78755e-05
-7.94656e-05
-8.10412e-05
-8.25992e-05
-8.41355e-05
-8.56468e-05
-8.71313e-05
-8.85839e-05
-9.00032e-05
-9.13861e-05
-9.27285e-05
-9.40298e-05
-9.52865e-05
-9.64971e-05
-9.76577e-05
-9.87678e-05
-9.98245e-05
-0.000100826
-0.00010177
-0.000102654
-0.000103477
-0.000104235
-0.000104927
-0.000105549
-0.000106101
-0.000106574
-0.000106973
-0.000107282
-0.00010751
-0.000107641
-0.000107676
-0.000107606
-0.000107425
-0.000107124
-0.0001067
-0.000106141
-0.000105446
-0.000104594
-0.000103593
-0.000102436
-0.000101095
-9.96232e-05
-9.79493e-05
-9.61138e-05
-9.41088e-05
-9.2273e-05
-8.96167e-05
-8.75803e-05
-8.49567e-05
-8.252e-05
-7.9897e-05
-7.72552e-05
-7.46222e-05
-7.19868e-05
-6.94024e-05
-6.68824e-05
-6.4455e-05
-6.21307e-05
-5.99334e-05
-5.7876e-05
-5.59653e-05
-5.42209e-05
-5.26343e-05
-5.12242e-05
-4.99802e-05
-4.89122e-05
-4.80119e-05
-4.72797e-05
-4.67096e-05
-4.63002e-05
-4.60438e-05
-4.59359e-05
-4.59703e-05
-4.61401e-05
-4.64396e-05
-4.68616e-05
-4.73993e-05
-4.80466e-05
-4.87963e-05
-4.96424e-05
-5.05786e-05
-5.15973e-05
-5.26942e-05
-5.38621e-05
-5.50961e-05
-5.63887e-05
-5.77361e-05
-5.9132e-05
-6.05707e-05
-6.20485e-05
-6.35586e-05
-6.50969e-05
-6.66587e-05
-6.82388e-05
-6.98334e-05
-7.14374e-05
-7.30466e-05
-7.46576e-05
-7.62651e-05
-7.7866e-05
-7.94562e-05
-8.10319e-05
-8.259e-05
-8.41264e-05
-8.56378e-05
-8.71225e-05
-8.85752e-05
-8.99947e-05
-9.13777e-05
-9.27203e-05
-9.40218e-05
-9.52786e-05
-9.64893e-05
-9.76501e-05
-9.87603e-05
-9.98173e-05
-0.000100819
-0.000101763
-0.000102647
-0.00010347
-0.000104229
-0.000104922
-0.000105544
-0.000106096
-0.000106569
-0.000106969
-0.000107279
-0.000107507
-0.000107639
-0.000107675
-0.000107606
-0.000107426
-0.000107126
-0.000106703
-0.000106145
-0.00010545
-0.0001046
-0.000103599
-0.000102443
-0.000101102
-9.96314e-05
-9.79585e-05
-9.61237e-05
-9.41161e-05
-9.22894e-05
-8.96302e-05
-8.75964e-05
-8.49748e-05
-8.2538e-05
-7.9916e-05
-7.72738e-05
-7.46398e-05
-7.20031e-05
-6.94171e-05
-6.68954e-05
-6.44663e-05
-6.21404e-05
-5.99413e-05
-5.78822e-05
-5.597e-05
-5.42243e-05
-5.26365e-05
-5.12254e-05
-4.99806e-05
-4.89119e-05
-4.80109e-05
-4.72781e-05
-4.67073e-05
-4.62973e-05
-4.60401e-05
-4.59317e-05
-4.59653e-05
-4.61346e-05
-4.64334e-05
-4.68548e-05
-4.7392e-05
-4.80388e-05
-4.8788e-05
-4.96337e-05
-5.05694e-05
-5.15879e-05
-5.26844e-05
-5.3852e-05
-5.50857e-05
-5.63781e-05
-5.77254e-05
-5.91211e-05
-6.05598e-05
-6.20374e-05
-6.35475e-05
-6.50858e-05
-6.66477e-05
-6.82278e-05
-6.98225e-05
-7.14266e-05
-7.30359e-05
-7.4647e-05
-7.62547e-05
-7.78557e-05
-7.94462e-05
-8.1022e-05
-8.25804e-05
-8.41169e-05
-8.56286e-05
-8.71134e-05
-8.85664e-05
-8.99861e-05
-9.13693e-05
-9.27121e-05
-9.40138e-05
-9.52709e-05
-9.64818e-05
-9.76428e-05
-9.87533e-05
-9.98105e-05
-0.000100812
-0.000101757
-0.000102641
-0.000103465
-0.000104224
-0.000104917
-0.00010554
-0.000106092
-0.000106566
-0.000106966
-0.000107277
-0.000107506
-0.000107639
-0.000107676
-0.000107608
-0.000107429
-0.00010713
-0.000106708
-0.000106151
-0.000105458
-0.000104608
-0.000103608
-0.000102452
-0.000101113
-9.96425e-05
-9.79709e-05
-9.61367e-05
-9.41266e-05
-9.23091e-05
-8.96472e-05
-8.76152e-05
-8.49961e-05
-8.25587e-05
-7.99375e-05
-7.72947e-05
-7.46592e-05
-7.20209e-05
-6.94327e-05
-6.6909e-05
-6.44776e-05
-6.21496e-05
-5.99484e-05
-5.78872e-05
-5.5973e-05
-5.42256e-05
-5.26364e-05
-5.12241e-05
-4.99784e-05
-4.89087e-05
-4.8007e-05
-4.72734e-05
-4.67019e-05
-4.62911e-05
-4.60332e-05
-4.59241e-05
-4.59571e-05
-4.61258e-05
-4.6424e-05
-4.6845e-05
-4.73817e-05
-4.8028e-05
-4.87768e-05
-4.96222e-05
-5.05576e-05
-5.15758e-05
-5.26721e-05
-5.38396e-05
-5.50731e-05
-5.63655e-05
-5.77127e-05
-5.91084e-05
-6.05471e-05
-6.20248e-05
-6.3535e-05
-6.50734e-05
-6.66354e-05
-6.82158e-05
-6.98107e-05
-7.1415e-05
-7.30245e-05
-7.46359e-05
-7.62438e-05
-7.78451e-05
-7.94359e-05
-8.1012e-05
-8.25706e-05
-8.41075e-05
-8.56195e-05
-8.71046e-05
-8.85578e-05
-8.99778e-05
-9.13613e-05
-9.27044e-05
-9.40064e-05
-9.52638e-05
-9.64749e-05
-9.76363e-05
-9.8747e-05
-9.98045e-05
-0.000100806
-0.000101751
-0.000102636
-0.00010346
-0.00010422
-0.000104913
-0.000105536
-0.000106089
-0.000106564
-0.000106965
-0.000107277
-0.000107507
-0.000107641
-0.000107679
-0.000107612
-0.000107434
-0.000107137
-0.000106716
-0.00010616
-0.000105468
-0.000104619
-0.000103621
-0.000102465
-0.000101126
-9.96569e-05
-9.79865e-05
-9.6153e-05
-9.41402e-05
-9.23318e-05
-8.96673e-05
-8.76366e-05
-8.50201e-05
-8.25816e-05
-7.9961e-05
-7.73173e-05
-7.46798e-05
-7.20393e-05
-6.94485e-05
-6.69223e-05
-6.44882e-05
-6.21577e-05
-5.99538e-05
-5.78902e-05
-5.59737e-05
-5.42243e-05
-5.26334e-05
-5.12197e-05
-4.99728e-05
-4.89022e-05
-4.79996e-05
-4.72651e-05
-4.66929e-05
-4.62813e-05
-4.60228e-05
-4.5913e-05
-4.59454e-05
-4.61136e-05
-4.64113e-05
-4.68318e-05
-4.73682e-05
-4.80142e-05
-4.87627e-05
-4.96079e-05
-5.05431e-05
-5.15612e-05
-5.26574e-05
-5.38249e-05
-5.50584e-05
-5.63509e-05
-5.76983e-05
-5.90941e-05
-6.0533e-05
-6.20109e-05
-6.35213e-05
-6.506e-05
-6.66223e-05
-6.8203e-05
-6.97981e-05
-7.14028e-05
-7.30127e-05
-7.46244e-05
-7.62328e-05
-7.78345e-05
-7.94256e-05
-8.10021e-05
-8.25611e-05
-8.40984e-05
-8.56108e-05
-8.70962e-05
-8.85499e-05
-8.99703e-05
-9.13541e-05
-9.26976e-05
-9.39999e-05
-9.52577e-05
-9.64691e-05
-9.76308e-05
-9.87419e-05
-9.97998e-05
-0.000100802
-0.000101747
-0.000102633
-0.000103457
-0.000104217
-0.000104911
-0.000105535
-0.000106088
-0.000106564
-0.000106966
-0.000107278
-0.00010751
-0.000107645
-0.000107684
-0.000107618
-0.000107442
-0.000107146
-0.000106727
-0.000106172
-0.000105481
-0.000104633
-0.000103636
-0.000102481
-0.000101143
-9.96743e-05
-9.80054e-05
-9.61724e-05
-9.41569e-05
-9.23572e-05
-8.96904e-05
-8.766e-05
-8.50465e-05
-8.26063e-05
-7.99858e-05
-7.73409e-05
-7.4701e-05
-7.2058e-05
-6.9464e-05
-6.69348e-05
-6.44976e-05
-6.21641e-05
-5.99572e-05
-5.78907e-05
-5.59716e-05
-5.422e-05
-5.26272e-05
-5.12118e-05
-4.99637e-05
-4.88919e-05
-4.79884e-05
-4.72531e-05
-4.66801e-05
-4.62678e-05
-4.60086e-05
-4.58982e-05
-4.593e-05
-4.60978e-05
-4.63952e-05
-4.68154e-05
-4.73515e-05
-4.79972e-05
-4.87457e-05
-4.95908e-05
-5.05259e-05
-5.15441e-05
-5.26404e-05
-5.3808e-05
-5.50417e-05
-5.63344e-05
-5.76821e-05
-5.90782e-05
-6.05175e-05
-6.19957e-05
-6.35065e-05
-6.50456e-05
-6.66083e-05
-6.81895e-05
-6.97851e-05
-7.13903e-05
-7.30007e-05
-7.46129e-05
-7.62218e-05
-7.7824e-05
-7.94156e-05
-8.09926e-05
-8.25521e-05
-8.40899e-05
-8.56029e-05
-8.70887e-05
-8.85429e-05
-8.99637e-05
-9.13479e-05
-9.26919e-05
-9.39946e-05
-9.52528e-05
-9.64646e-05
-9.76268e-05
-9.87383e-05
-9.97965e-05
-0.000100799
-0.000101745
-0.000102631
-0.000103455
-0.000104216
-0.000104911
-0.000105535
-0.000106089
-0.000106565
-0.000106968
-0.000107282
-0.000107515
-0.000107651
-0.000107691
-0.000107627
-0.000107453
-0.000107158
-0.00010674
-0.000106186
-0.000105497
-0.000104651
-0.000103654
-0.0001025
-0.000101163
-9.96947e-05
-9.80273e-05
-9.61947e-05
-9.41766e-05
-9.2385e-05
-8.97161e-05
-8.7685e-05
-8.50747e-05
-8.26323e-05
-8.00116e-05
-7.73653e-05
-7.47223e-05
-7.20763e-05
-6.94788e-05
-6.69461e-05
-6.45053e-05
-6.21685e-05
-5.99582e-05
-5.78884e-05
-5.59664e-05
-5.42123e-05
-5.26174e-05
-5.12003e-05
-4.99508e-05
-4.88777e-05
-4.79732e-05
-4.7237e-05
-4.66633e-05
-4.62503e-05
-4.59904e-05
-4.58796e-05
-4.59109e-05
-4.60784e-05
-4.63755e-05
-4.67955e-05
-4.73315e-05
-4.79772e-05
-4.87256e-05
-4.95708e-05
-5.05061e-05
-5.15245e-05
-5.2621e-05
-5.3789e-05
-5.5023e-05
-5.63161e-05
-5.76642e-05
-5.90608e-05
-6.05006e-05
-6.19793e-05
-6.34907e-05
-6.50304e-05
-6.65937e-05
-6.81755e-05
-6.97718e-05
-7.13775e-05
-7.29886e-05
-7.46014e-05
-7.62109e-05
-7.78138e-05
-7.9406e-05
-8.09837e-05
-8.25438e-05
-8.40822e-05
-8.55958e-05
-8.70821e-05
-8.85369e-05
-8.99582e-05
-9.13429e-05
-9.26875e-05
-9.39907e-05
-9.52493e-05
-9.64616e-05
-9.76243e-05
-9.87362e-05
-9.9795e-05
-0.000100798
-0.000101744
-0.000102631
-0.000103456
-0.000104217
-0.000104912
-0.000105537
-0.000106092
-0.000106569
-0.000106973
-0.000107288
-0.000107521
-0.000107659
-0.000107701
-0.000107638
-0.000107465
-0.000107172
-0.000106756
-0.000106204
-0.000105515
-0.00010467
-0.000103675
-0.000102522
-0.000101185
-9.97176e-05
-9.80519e-05
-9.62195e-05
-9.41989e-05
-9.24146e-05
-8.97441e-05
-8.77115e-05
-8.51045e-05
-8.26594e-05
-8.00382e-05
-7.73901e-05
-7.47436e-05
-7.20943e-05
-6.94927e-05
-6.69561e-05
-6.45113e-05
-6.21707e-05
-5.99566e-05
-5.78832e-05
-5.59581e-05
-5.42011e-05
-5.2604e-05
-5.11849e-05
-4.99339e-05
-4.88595e-05
-4.7954e-05
-4.72169e-05
-4.66424e-05
-4.62287e-05
-4.59683e-05
-4.5857e-05
-4.58879e-05
-4.60551e-05
-4.63521e-05
-4.67721e-05
-4.7308e-05
-4.79539e-05
-4.87025e-05
-4.95479e-05
-5.04835e-05
-5.15023e-05
-5.25992e-05
-5.37676e-05
-5.50021e-05
-5.62959e-05
-5.76446e-05
-5.90419e-05
-6.04824e-05
-6.19617e-05
-6.34739e-05
-6.50143e-05
-6.65784e-05
-6.81609e-05
-6.9758e-05
-7.13646e-05
-7.29765e-05
-7.45901e-05
-7.62004e-05
-7.78039e-05
-7.9397e-05
-8.09754e-05
-8.25362e-05
-8.40753e-05
-8.55896e-05
-8.70766e-05
-8.8532e-05
-8.9954e-05
-9.13392e-05
-9.26844e-05
-9.39882e-05
-9.52474e-05
-9.64602e-05
-9.76234e-05
-9.87358e-05
-9.97951e-05
-0.000100799
-0.000101745
-0.000102632
-0.000103458
-0.00010422
-0.000104915
-0.000105541
-0.000106097
-0.000106575
-0.000106979
-0.000107296
-0.00010753
-0.000107669
-0.000107713
-0.000107652
-0.00010748
-0.000107189
-0.000106774
-0.000106223
-0.000105536
-0.000104693
-0.000103698
-0.000102546
-0.00010121
-9.9743e-05
-9.80789e-05
-9.62467e-05
-9.42236e-05
-9.24458e-05
-8.97744e-05
-8.77392e-05
-8.51357e-05
-8.26876e-05
-8.00655e-05
-7.74154e-05
-7.47649e-05
-7.21118e-05
-6.95057e-05
-6.69648e-05
-6.45155e-05
-6.21708e-05
-5.99524e-05
-5.78751e-05
-5.59466e-05
-5.41864e-05
-5.25868e-05
-5.11655e-05
-4.99129e-05
-4.88371e-05
-4.79306e-05
-4.71925e-05
-4.66172e-05
-4.62028e-05
-4.59419e-05
-4.58302e-05
-4.58608e-05
-4.60279e-05
-4.63249e-05
-4.67449e-05
-4.72811e-05
-4.79271e-05
-4.86761e-05
-4.95219e-05
-5.04579e-05
-5.14773e-05
-5.25749e-05
-5.3744e-05
-5.49791e-05
-5.62737e-05
-5.76232e-05
-5.90213e-05
-6.04628e-05
-6.19429e-05
-6.3456e-05
-6.49973e-05
-6.65624e-05
-6.81458e-05
-6.97438e-05
-7.13514e-05
-7.29642e-05
-7.45787e-05
-7.61899e-05
-7.77944e-05
-7.93883e-05
-8.09676e-05
-8.25293e-05
-8.40692e-05
-8.55843e-05
-8.7072e-05
-8.85283e-05
-8.99509e-05
-9.13368e-05
-9.26827e-05
-9.39871e-05
-9.52469e-05
-9.64602e-05
-9.76241e-05
-9.8737e-05
-9.97968e-05
-0.000100801
-0.000101748
-0.000102636
-0.000103462
-0.000104224
-0.00010492
-0.000105547
-0.000106103
-0.000106582
-0.000106988
-0.000107305
-0.000107541
-0.000107681
-0.000107726
-0.000107667
-0.000107497
-0.000107207
-0.000106794
-0.000106245
-0.000105559
-0.000104718
-0.000103724
-0.000102573
-0.000101238
-9.97706e-05
-9.81082e-05
-9.62759e-05
-9.42505e-05
-9.24784e-05
-8.98069e-05
-8.77684e-05
-8.51685e-05
-8.27169e-05
-8.00937e-05
-7.74412e-05
-7.47863e-05
-7.21289e-05
-6.95179e-05
-6.69722e-05
-6.4518e-05
-6.21687e-05
-5.99458e-05
-5.78641e-05
-5.59318e-05
-5.41682e-05
-5.25659e-05
-5.11422e-05
-4.98878e-05
-4.88105e-05
-4.79027e-05
-4.71637e-05
-4.65876e-05
-4.61725e-05
-4.59111e-05
-4.5799e-05
-4.58294e-05
-4.59965e-05
-4.62936e-05
-4.67138e-05
-4.72503e-05
-4.78967e-05
-4.86462e-05
-4.94926e-05
-5.04293e-05
-5.14494e-05
-5.25477e-05
-5.37177e-05
-5.49537e-05
-5.62492e-05
-5.75998e-05
-5.89989e-05
-6.04414e-05
-6.19226e-05
-6.34367e-05
-6.49792e-05
-6.65453e-05
-6.81299e-05
-6.9729e-05
-7.13376e-05
-7.29516e-05
-7.45671e-05
-7.61794e-05
-7.77849e-05
-7.93798e-05
-8.09601e-05
-8.25227e-05
-8.40636e-05
-8.55797e-05
-8.70682e-05
-8.85253e-05
-8.99487e-05
-9.13353e-05
-9.2682e-05
-9.39871e-05
-9.52476e-05
-9.64615e-05
-9.7626e-05
-9.87395e-05
-9.97999e-05
-0.000100805
-0.000101752
-0.00010264
-0.000103467
-0.00010423
-0.000104927
-0.000105554
-0.000106111
-0.000106591
-0.000106997
-0.000107316
-0.000107553
-0.000107695
-0.000107742
-0.000107684
-0.000107516
-0.000107228
-0.000106816
-0.000106269
-0.000105585
-0.000104745
-0.000103752
-0.000102602
-0.000101268
-9.98005e-05
-9.81398e-05
-9.63073e-05
-9.42799e-05
-9.25124e-05
-8.98419e-05
-8.77993e-05
-8.5203e-05
-8.27478e-05
-8.01229e-05
-7.74679e-05
-7.48081e-05
-7.2146e-05
-6.95296e-05
-6.69786e-05
-6.4519e-05
-6.21646e-05
-5.99366e-05
-5.78502e-05
-5.59137e-05
-5.41463e-05
-5.2541e-05
-5.11147e-05
-4.98584e-05
-4.87793e-05
-4.78703e-05
-4.71302e-05
-4.65533e-05
-4.61375e-05
-4.58756e-05
-4.57632e-05
-4.57935e-05
-4.59607e-05
-4.62579e-05
-4.66785e-05
-4.72153e-05
-4.78624e-05
-4.86125e-05
-4.94596e-05
-5.03971e-05
-5.14182e-05
-5.25175e-05
-5.36884e-05
-5.49255e-05
-5.62222e-05
-5.75739e-05
-5.89741e-05
-6.04179e-05
-6.19003e-05
-6.34157e-05
-6.49594e-05
-6.65268e-05
-6.81126e-05
-6.9713e-05
-7.13228e-05
-7.2938e-05
-7.45548e-05
-7.61682e-05
-7.7775e-05
-7.9371e-05
-8.09524e-05
-8.25161e-05
-8.4058e-05
-8.55751e-05
-8.70645e-05
-8.85226e-05
-8.99469e-05
-9.13343e-05
-9.26819e-05
-9.39877e-05
-9.52489e-05
-9.64635e-05
-9.76287e-05
-9.87429e-05
-9.98039e-05
-0.000100809
-0.000101758
-0.000102646
-0.000103473
-0.000104237
-0.000104935
-0.000105563
-0.000106121
-0.000106601
-0.000107009
-0.000107329
-0.000107567
-0.000107711
-0.000107759
-0.000107703
-0.000107537
-0.00010725
-0.000106841
-0.000106295
-0.000105612
-0.000104774
-0.000103782
-0.000102633
-0.0001013
-9.98327e-05
-9.81739e-05
-9.63411e-05
-9.43119e-05
-9.25482e-05
-8.98797e-05
-8.78325e-05
-8.52396e-05
-8.27805e-05
-8.01537e-05
-7.74957e-05
-7.48306e-05
-7.21634e-05
-6.9541e-05
-6.69842e-05
-6.45187e-05
-6.21588e-05
-5.99252e-05
-5.78335e-05
-5.58925e-05
-5.41208e-05
-5.25123e-05
-5.1083e-05
-4.98245e-05
-4.87436e-05
-4.78332e-05
-4.70919e-05
-4.65142e-05
-4.60976e-05
-4.58352e-05
-4.57226e-05
-4.57527e-05
-4.592e-05
-4.62175e-05
-4.66385e-05
-4.71759e-05
-4.78235e-05
-4.85744e-05
-4.94225e-05
-5.03609e-05
-5.13831e-05
-5.24835e-05
-5.36557e-05
-5.48939e-05
-5.61919e-05
-5.75449e-05
-5.89465e-05
-6.03916e-05
-6.18754e-05
-6.33921e-05
-6.49372e-05
-6.6506e-05
-6.80932e-05
-6.9695e-05
-7.13062e-05
-7.29228e-05
-7.45409e-05
-7.61557e-05
-7.77637e-05
-7.9361e-05
-8.09437e-05
-8.25085e-05
-8.40516e-05
-8.55698e-05
-8.70603e-05
-8.85194e-05
-8.99447e-05
-9.13331e-05
-9.26816e-05
-9.39882e-05
-9.52503e-05
-9.64656e-05
-9.76316e-05
-9.87465e-05
-9.98082e-05
-0.000100814
-0.000101763
-0.000102652
-0.000103481
-0.000104245
-0.000104943
-0.000105572
-0.000106131
-0.000106613
-0.000107021
-0.000107343
-0.000107583
-0.000107728
-0.000107778
-0.000107725
-0.00010756
-0.000107276
-0.000106868
-0.000106324
-0.000105643
-0.000104806
-0.000103816
-0.000102667
-0.000101335
-9.98678e-05
-9.82108e-05
-9.63776e-05
-9.43469e-05
-9.2586e-05
-8.99208e-05
-8.78684e-05
-8.52788e-05
-8.28156e-05
-8.01865e-05
-7.75253e-05
-7.48543e-05
-7.21814e-05
-6.95526e-05
-6.69894e-05
-6.45174e-05
-6.21513e-05
-5.99117e-05
-5.78141e-05
-5.58681e-05
-5.40918e-05
-5.24797e-05
-5.10471e-05
-4.97862e-05
-4.87031e-05
-4.77912e-05
-4.70486e-05
-4.64699e-05
-4.60525e-05
-4.57896e-05
-4.56766e-05
-4.57067e-05
-4.58741e-05
-4.61719e-05
-4.65933e-05
-4.71313e-05
-4.77796e-05
-4.85314e-05
-4.93804e-05
-5.03199e-05
-5.13433e-05
-5.24449e-05
-5.36184e-05
-5.48581e-05
-5.61576e-05
-5.7512e-05
-5.89151e-05
-6.03617e-05
-6.18469e-05
-6.33651e-05
-6.49117e-05
-6.6482e-05
-6.80708e-05
-6.9674e-05
-7.12867e-05
-7.29048e-05
-7.45244e-05
-7.61406e-05
-7.77501e-05
-7.93488e-05
-8.09329e-05
-8.24991e-05
-8.40434e-05
-8.5563e-05
-8.70546e-05
-8.85149e-05
-8.99413e-05
-9.13307e-05
-9.26802e-05
-9.39879e-05
-9.52508e-05
-9.64671e-05
-9.76339e-05
-9.87496e-05
-9.9812e-05
-0.000100819
-0.000101769
-0.000102659
-0.000103488
-0.000104253
-0.000104953
-0.000105583
-0.000106142
-0.000106625
-0.000107035
-0.000107359
-0.0001076
-0.000107748
-0.0001078
-0.000107748
-0.000107586
-0.000107303
-0.000106897
-0.000106356
-0.000105676
-0.000104841
-0.000103853
-0.000102705
-0.000101374
-9.99062e-05
-9.82511e-05
-9.64173e-05
-9.43855e-05
-9.26264e-05
-8.99658e-05
-8.79079e-05
-8.53213e-05
-8.28539e-05
-8.0222e-05
-7.75572e-05
-7.48799e-05
-7.22007e-05
-6.95649e-05
-6.69947e-05
-6.45156e-05
-6.21428e-05
-5.98965e-05
-5.77926e-05
-5.5841e-05
-5.40596e-05
-5.24434e-05
-5.10072e-05
-4.97436e-05
-4.86581e-05
-4.77444e-05
-4.70002e-05
-4.64203e-05
-4.60019e-05
-4.57384e-05
-4.5625e-05
-4.5655e-05
-4.58225e-05
-4.61206e-05
-4.65425e-05
-4.70809e-05
-4.773e-05
-4.84826e-05
-4.93325e-05
-5.0273e-05
-5.12977e-05
-5.24006e-05
-5.35756e-05
-5.48167e-05
-5.61179e-05
-5.74741e-05
-5.88789e-05
-6.03271e-05
-6.18139e-05
-6.33338e-05
-6.48821e-05
-6.6454e-05
-6.80445e-05
-6.96495e-05
-7.12639e-05
-7.28837e-05
-7.45049e-05
-7.61228e-05
-7.77339e-05
-7.93342e-05
-8.09198e-05
-8.24874e-05
-8.40333e-05
-8.55542e-05
-8.70472e-05
-8.85088e-05
-8.99365e-05
-9.13271e-05
-9.26777e-05
-9.39864e-05
-9.52504e-05
-9.64676e-05
-9.76353e-05
-9.87519e-05
-9.98151e-05
-0.000100823
-0.000101773
-0.000102664
-0.000103495
-0.000104262
-0.000104962
-0.000105593
-0.000106154
-0.000106639
-0.00010705
-0.000107376
-0.000107619
-0.000107769
-0.000107823
-0.000107774
-0.000107614
-0.000107334
-0.00010693
-0.000106391
-0.000105713
-0.000104881
-0.000103893
-0.000102746
-0.000101417
-9.99485e-05
-9.82953e-05
-9.64611e-05
-9.44284e-05
-9.26701e-05
-9.00156e-05
-8.79517e-05
-8.53678e-05
-8.28961e-05
-8.02611e-05
-7.75922e-05
-7.4908e-05
-7.22221e-05
-6.95786e-05
-6.70009e-05
-6.45141e-05
-6.21339e-05
-5.98802e-05
-5.77694e-05
-5.58117e-05
-5.40246e-05
-5.24039e-05
-5.09637e-05
-4.96969e-05
-4.86088e-05
-4.7693e-05
-4.69469e-05
-4.63654e-05
-4.59457e-05
-4.56812e-05
-4.55673e-05
-4.55969e-05
-4.57646e-05
-4.60631e-05
-4.64854e-05
-4.70243e-05
-4.7674e-05
-4.84274e-05
-4.92783e-05
-5.022e-05
-5.12459e-05
-5.23502e-05
-5.35266e-05
-5.47694e-05
-5.60724e-05
-5.74306e-05
-5.88375e-05
-6.02878e-05
-6.17766e-05
-6.32987e-05
-6.48492e-05
-6.64232e-05
-6.80159e-05
-6.96229e-05
-7.12395e-05
-7.28613e-05
-7.44845e-05
-7.61044e-05
-7.77173e-05
-7.93195e-05
-8.09068e-05
-8.24762e-05
-8.40236e-05
-8.55462e-05
-8.70406e-05
-8.85036e-05
-8.99325e-05
-9.13243e-05
-9.26761e-05
-9.39859e-05
-9.52508e-05
-9.64689e-05
-9.76375e-05
-9.87549e-05
-9.98189e-05
-0.000100827
-0.000101779
-0.00010267
-0.000103502
-0.00010427
-0.000104971
-0.000105603
-0.000106166
-0.000106652
-0.000107066
-0.000107394
-0.000107639
-0.000107791
-0.000107849
-0.000107802
-0.000107645
-0.000107368
-0.000106967
-0.000106431
-0.000105755
-0.000104924
-0.000103939
-0.000102792
-0.000101464
-9.99956e-05
-9.83443e-05
-9.65096e-05
-9.44764e-05
-9.27178e-05
-9.00711e-05
-8.80009e-05
-8.54194e-05
-8.29431e-05
-8.03047e-05
-7.76314e-05
-7.49399e-05
-7.22467e-05
-6.95949e-05
-6.70089e-05
-6.45137e-05
-6.21255e-05
-5.98639e-05
-5.77455e-05
-5.57813e-05
-5.39878e-05
-5.23619e-05
-5.09169e-05
-4.96466e-05
-4.85555e-05
-4.76373e-05
-4.68889e-05
-4.63053e-05
-4.58839e-05
-4.5618e-05
-4.55031e-05
-4.55321e-05
-4.56996e-05
-4.59985e-05
-4.64213e-05
-4.69609e-05
-4.76116e-05
-4.83663e-05
-4.92186e-05
-5.01618e-05
-5.11895e-05
-5.22957e-05
-5.34741e-05
-5.47188e-05
-5.60237e-05
-5.73837e-05
-5.87929e-05
-6.02458e-05
-6.17374e-05
-6.32622e-05
-6.48153e-05
-6.63921e-05
-6.79874e-05
-6.9597e-05
-7.12161e-05
-7.28405e-05
-7.4466e-05
-7.60883e-05
-7.77035e-05
-7.93077e-05
-8.08971e-05
-8.24684e-05
-8.40177e-05
-8.55419e-05
-8.70379e-05
-8.85023e-05
-8.99326e-05
-9.13256e-05
-9.26786e-05
-9.39894e-05
-9.52554e-05
-9.64743e-05
-9.76438e-05
-9.8762e-05
-9.98268e-05
-0.000100836
-0.000101788
-0.000102681
-0.000103512
-0.00010428
-0.000104982
-0.000105615