/*--------------------------------*- C++ -*----------------------------------*\
| =========                 |                                                 |
| \\      /  F ield         | OpenFOAM: The Open Source CFD Toolbox           |
|  \\    /   O peration     | Version:  2112                                  |
|   \\  /    A nd           | Website:  www.openfoam.com                      |
|    \\/     M anipulation  |                                                 |
\*---------------------------------------------------------------------------*/
FoamFile
{
    version     2.0;
    format      ascii;
    arch        "LSB;label=32;scalar=64";
    class       surfaceScalarField;
    location    "1225";
    object      phi;
}
// * * * * * * * * * * * * * * * * * * * * * * * * * * * * * * * * * * * * * //

dimensions      [0 3 -1 0 0 0 0];

oriented        oriented;

internalField   nonuniform List<scalar> 
29254
(
-6.18317e-07
-3.31054e-09
-6.18804e-07
4.87236e-10
-6.16459e-07
-2.34574e-09
-6.14148e-07
-2.31063e-09
-6.10742e-07
-3.40614e-09
-6.06165e-07
-4.57711e-09
-6.01005e-07
-5.1599e-09
-5.94954e-07
-6.05046e-09
-5.88232e-07
-6.72261e-09
-5.80935e-07
-7.29693e-09
-5.73193e-07
-7.74149e-09
-5.64986e-07
-8.2072e-09
-5.56511e-07
-8.4757e-09
-5.47917e-07
-8.59373e-09
-5.39229e-07
-8.6881e-09
-5.30635e-07
-8.59368e-09
-5.22084e-07
-8.55104e-09
-5.13725e-07
-8.35878e-09
-5.05556e-07
-8.16942e-09
-4.97714e-07
-7.8413e-09
-4.9018e-07
-7.53472e-09
-4.82984e-07
-7.19566e-09
-4.76143e-07
-6.84058e-09
-4.69739e-07
-6.40415e-09
-4.63737e-07
-6.002e-09
-4.58113e-07
-5.62464e-09
-4.52891e-07
-5.22167e-09
-4.48043e-07
-4.84836e-09
-4.43602e-07
-4.44041e-09
-4.39571e-07
-4.03146e-09
-4.35939e-07
-3.63179e-09
-4.32702e-07
-3.23704e-09
-4.29849e-07
-2.85283e-09
-4.27375e-07
-2.47371e-09
-4.25271e-07
-2.104e-09
-4.23487e-07
-1.784e-09
-4.22047e-07
-1.44033e-09
-4.20941e-07
-1.10593e-09
-4.20162e-07
-7.7944e-10
-4.19646e-07
-5.16162e-10
-4.1942e-07
-2.25566e-10
-4.19509e-07
8.92781e-11
-4.1988e-07
3.70936e-10
-4.20566e-07
6.85806e-10
-4.21511e-07
9.44681e-10
-4.22697e-07
1.18648e-09
-4.24118e-07
1.42125e-09
-4.25759e-07
1.64071e-09
-4.27613e-07
1.85357e-09
-4.29664e-07
2.0516e-09
-4.31903e-07
2.23824e-09
-4.34339e-07
2.43596e-09
-4.36942e-07
2.60314e-09
-4.39702e-07
2.76003e-09
-4.4261e-07
2.90845e-09
-4.45655e-07
3.04443e-09
-4.48831e-07
3.17594e-09
-4.52123e-07
3.29287e-09
-4.55525e-07
3.40134e-09
-4.59081e-07
3.55578e-09
-4.62736e-07
3.65528e-09
-4.66506e-07
3.77044e-09
-4.70351e-07
3.8448e-09
-4.74211e-07
3.85964e-09
-4.78131e-07
3.92064e-09
-4.82112e-07
3.98025e-09
-4.8615e-07
4.03846e-09
-4.90206e-07
4.05623e-09
-4.94307e-07
4.10115e-09
-4.98455e-07
4.14807e-09
-5.02644e-07
4.18866e-09
-5.06879e-07
4.23501e-09
-5.11154e-07
4.27519e-09
-5.15475e-07
4.32036e-09
-5.19847e-07
4.37193e-09
-5.24272e-07
4.42562e-09
-5.28747e-07
4.4752e-09
-5.33292e-07
4.54429e-09
-5.37879e-07
4.58691e-09
-5.42576e-07
4.69734e-09
-5.47299e-07
4.72275e-09
-5.52124e-07
4.82528e-09
-5.57001e-07
4.87671e-09
-5.61935e-07
4.93421e-09
-5.66928e-07
4.99296e-09
-5.7197e-07
5.0421e-09
-5.77018e-07
5.04767e-09
-5.82048e-07
5.03088e-09
-5.8702e-07
4.9712e-09
-5.9192e-07
4.90029e-09
-5.96615e-07
4.69523e-09
-6.01183e-07
4.56729e-09
-6.05513e-07
4.33096e-09
-6.09277e-07
3.76376e-09
-6.12843e-07
3.56605e-09
-6.15522e-07
2.67837e-09
-6.17155e-07
1.63376e-09
-6.18107e-07
9.51167e-10
3.52114e-09
-1.92364e-06
-1.20985e-08
-1.92455e-06
1.39417e-09
-1.92301e-06
-3.88375e-09
-1.92326e-06
-2.06432e-09
-1.9225e-06
-4.16744e-09
-1.91902e-06
-8.05573e-09
-1.91429e-06
-9.88489e-09
-1.90731e-06
-1.30356e-08
-1.89837e-06
-1.56642e-08
-1.88768e-06
-1.79863e-08
-1.8755e-06
-1.99221e-08
-1.8618e-06
-2.19085e-08
-1.84698e-06
-2.32875e-08
-1.83138e-06
-2.4194e-08
-1.81509e-06
-2.49832e-08
-1.79856e-06
-2.51216e-08
-1.7817e-06
-2.54129e-08
-1.7649e-06
-2.51529e-08
-1.74822e-06
-2.48495e-08
-1.732e-06
-2.40629e-08
-1.71626e-06
-2.32816e-08
-1.70108e-06
-2.23722e-08
-1.68655e-06
-2.13702e-08
-1.67286e-06
-2.00923e-08
-1.65999e-06
-1.88732e-08
-1.64795e-06
-1.7661e-08
-1.63681e-06
-1.63679e-08
-1.62653e-06
-1.51248e-08
-1.61721e-06
-1.37632e-08
-1.60887e-06
-1.23716e-08
-1.60151e-06
-1.09933e-08
-1.59513e-06
-9.61361e-09
-1.58973e-06
-8.25193e-09
-1.58531e-06
-6.89487e-09
-1.58185e-06
-5.56361e-09
-1.57926e-06
-4.37949e-09
-1.57758e-06
-3.11983e-09
-1.5768e-06
-1.87928e-09
-1.57691e-06
-6.68307e-10
-1.57779e-06
3.58891e-10
-1.57948e-06
1.46669e-09
-1.582e-06
2.6101e-09
-1.5853e-06
3.66919e-09
-1.58943e-06
4.81814e-09
-1.59428e-06
5.79052e-09
-1.59978e-06
6.69038e-09
-1.60592e-06
7.56069e-09
-1.61264e-06
8.36399e-09
-1.61993e-06
9.13543e-09
-1.62772e-06
9.84207e-09
-1.63597e-06
1.04956e-08
-1.64471e-06
1.11693e-08
-1.65383e-06
1.17252e-08
-1.6633e-06
1.22261e-08
-1.67307e-06
1.26827e-08
-1.6831e-06
1.30736e-08
-1.69335e-06
1.34312e-08
-1.70378e-06
1.37165e-08
-1.71433e-06
1.3956e-08
-1.72508e-06
1.43067e-08
-1.7359e-06
1.44683e-08
-1.74675e-06
1.46198e-08
-1.75756e-06
1.4659e-08
-1.76818e-06
1.44842e-08
-1.77867e-06
1.44102e-08
-1.78901e-06
1.43118e-08
-1.79914e-06
1.41776e-08
-1.80898e-06
1.38945e-08
-1.81855e-06
1.36649e-08
-1.82782e-06
1.34257e-08
-1.83678e-06
1.3141e-08
-1.8454e-06
1.28585e-08
-1.85366e-06
1.25333e-08
-1.86155e-06
1.22118e-08
-1.86908e-06
1.19057e-08
-1.87625e-06
1.15952e-08
-1.88303e-06
1.12514e-08
-1.88946e-06
1.09728e-08
-1.89547e-06
1.05942e-08
-1.90122e-06
1.0455e-08
-1.9065e-06
1.00034e-08
-1.91151e-06
9.83187e-09
-1.91614e-06
9.50184e-09
-1.92042e-06
9.21557e-09
-1.92437e-06
8.94666e-09
-1.92798e-06
8.65104e-09
-1.93115e-06
8.21625e-09
-1.93389e-06
7.76925e-09
-1.93611e-06
7.19081e-09
-1.93783e-06
6.62315e-09
-1.93873e-06
5.5986e-09
-1.93904e-06
4.8789e-09
-1.93875e-06
4.03563e-09
-1.93732e-06
2.3378e-09
-1.93584e-06
2.08447e-09
-1.93293e-06
-2.31522e-10
-1.92957e-06
-1.7268e-09
-1.92765e-06
-9.65744e-10
8.29928e-09
-3.34348e-06
-2.75068e-08
-3.34601e-06
3.92183e-09
-3.35073e-06
8.36405e-10
-3.36189e-06
9.0979e-09
-3.37427e-06
8.21562e-09
-3.38352e-06
1.19453e-09
-3.39168e-06
-1.72486e-09
-3.39685e-06
-7.87171e-09
-3.39911e-06
-1.34052e-08
-3.39864e-06
-1.84555e-08
-3.39572e-06
-2.28392e-08
-3.39023e-06
-2.74018e-08
-3.38267e-06
-3.08433e-08
-3.37345e-06
-3.34109e-08
-3.36267e-06
-3.57706e-08
-3.35098e-06
-3.68063e-08
-3.3382e-06
-3.81938e-08
-3.32495e-06
-3.84021e-08
-3.31132e-06
-3.84812e-08
-3.29781e-06
-3.75693e-08
-3.2845e-06
-3.65979e-08
-3.27152e-06
-3.53486e-08
-3.25902e-06
-3.38743e-08
-3.24727e-06
-3.18357e-08
-3.2363e-06
-2.98467e-08
-3.2262e-06
-2.77649e-08
-3.21705e-06
-2.55116e-08
-3.20889e-06
-2.32889e-08
-3.20184e-06
-2.08107e-08
-3.19598e-06
-1.82285e-08
-3.19134e-06
-1.56365e-08
-3.18795e-06
-1.30037e-08
-3.18583e-06
-1.0376e-08
-3.18499e-06
-7.72737e-09
-3.18545e-06
-5.11105e-09
-3.18707e-06
-2.75559e-09
-3.18995e-06
-2.39793e-10
-3.19408e-06
2.25579e-09
-3.19946e-06
4.70308e-09
-3.20592e-06
6.81805e-09
-3.21354e-06
9.0921e-09
-3.22231e-06
1.13771e-08
-3.23216e-06
1.35248e-08
-3.24317e-06
1.5827e-08
-3.25517e-06
1.77898e-08
-3.26807e-06
1.95857e-08
-3.28182e-06
2.13093e-08
-3.29632e-06
2.28731e-08
-3.31154e-06
2.43512e-08
-3.32737e-06
2.56711e-08
-3.34373e-06
2.68589e-08
-3.36061e-06
2.80475e-08
-3.37786e-06
2.89706e-08
-3.39537e-06
2.97429e-08
-3.41308e-06
3.03907e-08
-3.43087e-06
3.08603e-08
-3.44866e-06
3.1222e-08
-3.46633e-06
3.13901e-08
-3.4838e-06
3.14242e-08
-3.5011e-06
3.16055e-08
-3.51801e-06
3.13789e-08
-3.53442e-06
3.10295e-08
-3.55023e-06
3.04698e-08
-3.56519e-06
2.94417e-08
-3.57931e-06
2.8529e-08
-3.59251e-06
2.75128e-08
-3.6047e-06
2.63691e-08
-3.61569e-06
2.48882e-08
-3.62548e-06
2.34506e-08
-3.63401e-06
2.19524e-08
-3.64118e-06
2.03189e-08
-3.64698e-06
1.86582e-08
-3.65133e-06
1.68775e-08
-3.6542e-06
1.50818e-08
-3.6556e-06
1.33122e-08
-3.65553e-06
1.15261e-08
-3.65393e-06
9.64486e-09
-3.65087e-06
7.91574e-09
-3.64624e-06
5.96395e-09
-3.64034e-06
4.5565e-09
-3.63281e-06
2.47478e-09
-3.62403e-06
1.04343e-09
-3.61386e-06
-6.58753e-10
-3.60246e-06
-2.19264e-09
-3.58988e-06
-3.62914e-09
-3.57617e-06
-5.05751e-09
-3.56124e-06
-6.71591e-09
-3.54522e-06
-8.24682e-09
-3.52807e-06
-9.96419e-09
-3.50992e-06
-1.15223e-08
-3.49038e-06
-1.39475e-08
-3.46995e-06
-1.55455e-08
-3.44905e-06
-1.68675e-08
-3.42725e-06
-1.946e-08
-3.40666e-06
-1.85023e-08
-3.38586e-06
-2.10402e-08
-3.36818e-06
-1.94038e-08
-3.35701e-06
-1.21345e-08
1.01759e-08
-4.82622e-06
-5.05866e-08
-4.83097e-06
8.67658e-09
-4.84437e-06
1.4232e-08
-4.87076e-06
3.54949e-08
-4.90186e-06
3.93139e-08
-4.93044e-06
2.97786e-08
-4.95888e-06
2.67112e-08
-4.98426e-06
1.75041e-08
-5.00634e-06
8.67478e-09
-5.02517e-06
3.75752e-10
-5.041e-06
-7.00387e-09
-5.05365e-06
-1.47532e-08
-5.06354e-06
-2.09572e-08
-5.07106e-06
-2.58934e-08
-5.07624e-06
-3.05833e-08
-5.07988e-06
-3.31645e-08
-5.08165e-06
-3.64236e-08
-5.08237e-06
-3.76881e-08
-5.08209e-06
-3.87565e-08
-5.0814e-06
-3.8258e-08
-5.08043e-06
-3.75774e-08
-5.07933e-06
-3.64405e-08
-5.07828e-06
-3.49322e-08
-5.07753e-06
-3.25844e-08
-5.07721e-06
-3.01655e-08
-5.0775e-06
-2.74686e-08
-5.0785e-06
-2.45179e-08
-5.08031e-06
-2.1477e-08
-5.08306e-06
-1.80587e-08
-5.08686e-06
-1.44263e-08
-5.09177e-06
-1.07285e-08
-5.09786e-06
-6.91357e-09
-5.10517e-06
-3.06994e-09
-5.11374e-06
8.4035e-10
-5.12358e-06
4.73518e-09
-5.13465e-06
8.31004e-09
-5.14701e-06
1.2118e-08
-5.16067e-06
1.59174e-08
-5.17563e-06
1.96615e-08
-5.19181e-06
2.29991e-08
-5.20921e-06
2.64925e-08
-5.22776e-06
2.99252e-08
-5.24742e-06
3.31934e-08
-5.26821e-06
3.66142e-08
-5.28999e-06
3.95657e-08
-5.31263e-06
4.22268e-08
-5.33608e-06
4.4757e-08
-5.36019e-06
4.69859e-08
-5.38489e-06
4.9049e-08
-5.41003e-06
5.08151e-08
-5.43549e-06
5.23232e-08
-5.46121e-06
5.37635e-08
-5.48698e-06
5.47395e-08
-5.51265e-06
5.54184e-08
-5.5381e-06
5.58398e-08
-5.56314e-06
5.5899e-08
-5.58764e-06
5.57231e-08
-5.61142e-06
5.51617e-08
-5.6343e-06
5.43115e-08
-5.65621e-06
5.35175e-08
-5.67691e-06
5.2079e-08
-5.69617e-06
5.0287e-08
-5.71386e-06
4.81572e-08
-5.72974e-06
4.53204e-08
-5.74367e-06
4.24647e-08
-5.75551e-06
3.93483e-08
-5.76508e-06
3.59422e-08
-5.77217e-06
3.19738e-08
-5.77666e-06
2.79414e-08
-5.77846e-06
2.37516e-08
-5.77742e-06
1.92762e-08
-5.77348e-06
1.47201e-08
-5.76653e-06
9.92819e-09
-5.75653e-06
5.08786e-09
-5.74351e-06
2.84486e-10
-5.72744e-06
-4.54199e-09
-5.70825e-06
-9.54068e-09
-5.6861e-06
-1.424e-08
-5.66081e-06
-1.93242e-08
-5.63286e-06
-2.33945e-08
-5.60176e-06
-2.86222e-08
-5.5681e-06
-3.2614e-08
-5.5318e-06
-3.69602e-08
-5.49314e-06
-4.08535e-08
-5.45229e-06
-4.44795e-08
-5.40938e-06
-4.79638e-08
-5.36439e-06
-5.17064e-08
-5.3177e-06
-5.49393e-08
-5.2693e-06
-5.83641e-08
-5.21957e-06
-6.12506e-08
-5.1681e-06
-6.54216e-08
-5.1157e-06
-6.79432e-08
-5.06348e-06
-6.90906e-08
-5.01127e-06
-7.16673e-08
-4.96251e-06
-6.72683e-08
-4.91607e-06
-6.74796e-08
-4.87809e-06
-5.73838e-08
-4.85305e-06
-3.71726e-08
6.4229e-09
-6.27212e-06
-8.22909e-08
-6.27852e-06
1.5085e-08
-6.30033e-06
3.60362e-08
-6.34154e-06
7.67099e-08
-6.39122e-06
8.899e-08
-6.43963e-06
7.81894e-08
-6.48925e-06
7.63357e-08
-6.53628e-06
6.45263e-08
-6.58007e-06
5.24696e-08
-6.62055e-06
4.0854e-08
-6.6579e-06
3.03489e-08
-6.69177e-06
1.91116e-08
-6.72253e-06
9.80812e-09
-6.75056e-06
2.13695e-09
-6.77578e-06
-5.37082e-09
-6.79907e-06
-9.87273e-09
-6.81993e-06
-1.55635e-08
-6.83931e-06
-1.83066e-08
-6.85723e-06
-2.08328e-08
-6.87433e-06
-2.11614e-08
-6.89071e-06
-2.11939e-08
-6.90656e-06
-2.05949e-08
-6.922e-06
-1.94895e-08
-6.93733e-06
-1.7252e-08
-6.9527e-06
-1.48023e-08
-6.96831e-06
-1.18568e-08
-6.98426e-06
-8.56799e-09
-7.00069e-06
-5.04157e-09
-7.01775e-06
-9.98206e-10
-7.03557e-06
3.39008e-09
-7.05423e-06
7.92957e-09
-7.07383e-06
1.26912e-08
-7.09444e-06
1.75351e-08
-7.11611e-06
2.25102e-08
-7.13887e-06
2.7501e-08
-7.16269e-06
3.21292e-08
-7.18766e-06
3.70882e-08
-7.2138e-06
4.20538e-08
-7.2411e-06
4.69598e-08
-7.26949e-06
5.13895e-08
-7.29897e-06
5.59712e-08
-7.32943e-06
6.03878e-08
-7.36085e-06
6.46119e-08
-7.3932e-06
6.89677e-08
-7.42634e-06
7.27086e-08
-7.46013e-06
7.60152e-08
-7.49449e-06
7.91102e-08
-7.52922e-06
8.17233e-08
-7.56424e-06
8.40627e-08
-7.59935e-06
8.59229e-08
-7.63438e-06
8.73547e-08
-7.66922e-06
8.86032e-08
-7.70362e-06
8.91412e-08
-7.73738e-06
8.9176e-08
-7.77031e-06
8.87735e-08
-7.80217e-06
8.77584e-08
-7.83277e-06
8.63239e-08
-7.86185e-06
8.42429e-08
-7.88919e-06
8.16485e-08
-7.91462e-06
7.89483e-08
-7.93783e-06
7.52888e-08
-7.95851e-06
7.09686e-08
-7.97648e-06
6.6123e-08
-7.99143e-06
6.02707e-08
-8.00315e-06
5.41882e-08
-8.01141e-06
4.76087e-08
-8.01598e-06
4.05096e-08
-8.01656e-06
3.25511e-08
-8.01297e-06
2.43613e-08
-8.00509e-06
1.58622e-08
-7.99269e-06
6.876e-09
-7.97569e-06
-2.27378e-09
-7.95396e-06
-1.18002e-08
-7.92747e-06
-2.14025e-08
-7.89623e-06
-3.09562e-08
-7.86024e-06
-4.05354e-08
-7.8194e-06
-5.03762e-08
-7.77393e-06
-5.97173e-08
-7.72362e-06
-6.96335e-08
-7.66911e-06
-7.79033e-08
-7.60982e-06
-8.79074e-08
-7.54656e-06
-9.58774e-08
-7.47928e-06
-1.04235e-07
-7.40843e-06
-1.11703e-07
-7.3343e-06
-1.18611e-07
-7.25715e-06
-1.25113e-07
-7.17705e-06
-1.31811e-07
-7.09461e-06
-1.37382e-07
-7.00994e-06
-1.43026e-07
-6.92368e-06
-1.47511e-07
-6.83549e-06
-1.5362e-07
-6.74661e-06
-1.56821e-07
-6.65881e-06
-1.56886e-07
-6.57231e-06
-1.58171e-07
-6.49191e-06
-1.4767e-07
-6.417e-06
-1.42383e-07
-6.35619e-06
-1.18194e-07
-6.315e-06
-7.83639e-08
-4.76025e-09
-7.63461e-06
-1.23481e-07
-7.64169e-06
2.21683e-08
-7.67046e-06
6.48078e-08
-7.72366e-06
1.29904e-07
-7.7888e-06
1.54131e-07
-7.85429e-06
1.43681e-07
-7.92248e-06
1.44521e-07
-7.9888e-06
1.30846e-07
-8.05227e-06
1.15946e-07
-8.11273e-06
1.0131e-07
-8.17025e-06
8.78736e-08
-8.2244e-06
7.3261e-08
-8.27545e-06
6.08578e-08
-8.32373e-06
5.04133e-08
-8.36903e-06
3.99268e-08
-8.41226e-06
3.33601e-08
-8.45278e-06
2.49586e-08
-8.49162e-06
2.05369e-08
-8.52875e-06
1.62964e-08
-8.56477e-06
1.48546e-08
-8.59982e-06
1.38529e-08
-8.63404e-06
1.36312e-08
-8.66755e-06
1.40204e-08
-8.70061e-06
1.58081e-08
-8.73338e-06
1.79646e-08
-8.76608e-06
2.08475e-08
-8.79881e-06
2.4162e-08
-8.83179e-06
2.79303e-08
-8.86509e-06
3.23066e-08
-8.89887e-06
3.71679e-08
-8.93321e-06
4.22736e-08
-8.96824e-06
4.77211e-08
-9.00403e-06
5.33197e-08
-9.04064e-06
5.91217e-08
-9.07811e-06
6.49715e-08
-9.11644e-06
7.04584e-08
-9.1557e-06
7.63471e-08
-9.19589e-06
8.2247e-08
-9.23702e-06
8.80907e-08
-9.27905e-06
9.34221e-08
-9.32194e-06
9.88606e-08
-9.36556e-06
1.04009e-07
-9.40987e-06
1.08917e-07
-9.45477e-06
1.13865e-07
-9.50015e-06
1.18089e-07
-9.54585e-06
1.21721e-07
-9.59178e-06
1.25034e-07
-9.63771e-06
1.27652e-07
-9.6835e-06
1.29855e-07
-9.72893e-06
1.31359e-07
-9.7738e-06
1.3222e-07
-9.81793e-06
1.32729e-07
-9.86102e-06
1.32241e-07
-9.90285e-06
1.31002e-07
-9.94317e-06
1.29094e-07
-9.98167e-06
1.26258e-07
-1.00181e-05
1.22776e-07
-1.00522e-05
1.18314e-07
-1.00836e-05
1.13053e-07
-1.0112e-05
1.07386e-07
-1.01372e-05
1.00444e-07
-1.01587e-05
9.2468e-08
-1.01763e-05
8.37194e-08
-1.01897e-05
7.36438e-08
-1.01985e-05
6.30179e-08
-1.02025e-05
5.15818e-08
-1.02013e-05
3.93348e-08
-1.01946e-05
2.59093e-08
-1.01823e-05
1.19863e-08
-1.0164e-05
-2.44002e-09
-1.01395e-05
-1.75896e-08
-1.01088e-05
-3.2986e-08
-1.00717e-05
-4.8939e-08
-1.0028e-05
-6.50096e-08
-9.978e-06
-8.10035e-08
-9.92151e-06
-9.70293e-08
-9.85845e-06
-1.13435e-07
-9.78908e-06
-1.2908e-07
-9.7132e-06
-1.45517e-07
-9.63157e-06
-1.59532e-07
-9.54355e-06
-1.75925e-07
-9.45013e-06
-1.89307e-07
-9.35131e-06
-2.03046e-07
-9.24772e-06
-2.15298e-07
-9.13975e-06
-2.26583e-07
-9.0278e-06
-2.37063e-07
-8.91205e-06
-2.47561e-07
-8.79337e-06
-2.56061e-07
-8.67201e-06
-2.64386e-07
-8.54882e-06
-2.70696e-07
-8.4236e-06
-2.78846e-07
-8.29798e-06
-2.82436e-07
-8.17442e-06
-2.80446e-07
-8.05354e-06
-2.79051e-07
-7.94143e-06
-2.59779e-07
-7.838e-06
-2.4582e-07
-7.75382e-06
-2.02371e-07
-7.69554e-06
-1.36639e-07
-2.45038e-08
-8.91585e-06
-1.74535e-07
-8.9226e-06
2.89175e-08
-8.95673e-06
9.89388e-08
-9.01921e-06
1.92378e-07
-9.09674e-06
2.31665e-07
-9.17648e-06
2.23423e-07
-9.26046e-06
2.28499e-07
-9.34351e-06
2.13893e-07
-9.42436e-06
1.96792e-07
-9.50274e-06
1.79695e-07
-9.57865e-06
1.63788e-07
-9.65158e-06
1.46183e-07
-9.72169e-06
1.3097e-07
-9.78925e-06
1.17971e-07
-9.85393e-06
1.04613e-07
-9.91666e-06
9.6089e-08
-9.97665e-06
8.49424e-08
-1.00349e-05
7.88335e-08
-1.00915e-05
7.28146e-08
-1.01468e-05
7.01703e-08
-1.0201e-05
6.80826e-08
-1.02543e-05
6.68974e-08
-1.03066e-05
6.63751e-08
-1.03583e-05
6.74872e-08
-1.04095e-05
6.91143e-08
-1.04603e-05
7.16923e-08
-1.05109e-05
7.47705e-08
-1.05615e-05
7.85376e-08
-1.06122e-05
8.29801e-08
-1.06631e-05
8.80328e-08
-1.07142e-05
9.34213e-08
-1.07658e-05
9.92723e-08
-1.08178e-05
1.05334e-07
-1.08703e-05
1.11671e-07
-1.09234e-05
1.18086e-07
-1.09771e-05
1.24151e-07
-1.10314e-05
1.30668e-07
-1.10864e-05
1.37201e-07
-1.1142e-05
1.43677e-07
-1.11982e-05
1.4961e-07
-1.12549e-05
1.55591e-07
-1.1312e-05
1.61125e-07
-1.13695e-05
1.66365e-07
-1.14271e-05
1.71508e-07
-1.14848e-05
1.75822e-07
-1.15425e-05
1.79366e-07
-1.15999e-05
1.82472e-07
-1.16569e-05
1.84626e-07
-1.17132e-05
1.86203e-07
-1.17687e-05
1.86827e-07
-1.18231e-05
1.86554e-07
-1.1876e-05
1.85712e-07
-1.19273e-05
1.83554e-07
-1.19767e-05
1.80352e-07
-1.20238e-05
1.7621e-07
-1.20683e-05
1.70771e-07
-1.211e-05
1.6441e-07
-1.21483e-05
1.56682e-07
-1.21831e-05
1.47813e-07
-1.22139e-05
1.38153e-07
-1.22403e-05
1.26863e-07
-1.22619e-05
1.14109e-07
-1.22785e-05
1.00289e-07
-1.22896e-05
8.47788e-08
-1.22949e-05
6.83267e-08
-1.2294e-05
5.06829e-08
-1.22866e-05
3.18935e-08
-1.22722e-05
1.15648e-08
-1.22507e-05
-9.57791e-09
-1.22217e-05
-3.14363e-08
-1.2185e-05
-5.42817e-08
-1.21405e-05
-7.74942e-08
-1.20879e-05
-1.01476e-07
-1.20273e-05
-1.25635e-07
-1.19586e-05
-1.49692e-07
-1.18819e-05
-1.7378e-07
-1.17969e-05
-1.98374e-07
-1.17041e-05
-2.21913e-07
-1.16032e-05
-2.46453e-07
-1.1495e-05
-2.67697e-07
-1.13789e-05
-2.91989e-07
-1.12561e-05
-3.12151e-07
-1.11266e-05
-3.32572e-07
-1.09911e-05
-3.50766e-07
-1.08502e-05
-3.67458e-07
-1.07045e-05
-3.82815e-07
-1.05542e-05
-3.97873e-07
-1.04004e-05
-4.09845e-07
-1.02435e-05
-4.21237e-07
-1.00847e-05
-4.29526e-07
-9.92384e-06
-4.39712e-07
-9.76296e-06
-4.43313e-07
-9.60511e-06
-4.38297e-07
-9.45136e-06
-4.32797e-07
-9.30887e-06
-4.0227e-07
-9.17804e-06
-3.7665e-07
-9.07103e-06
-3.0938e-07
-8.99573e-06
-2.11941e-07
-5.33257e-08
-1.01241e-05
-2.35129e-07
-1.01307e-05
3.55275e-08
-1.01699e-05
1.38165e-07
-1.02392e-05
2.61718e-07
-1.03264e-05
3.18871e-07
-1.04181e-05
3.15096e-07
-1.05156e-05
3.25976e-07
-1.06134e-05
3.11667e-07
-1.07098e-05
2.93217e-07
-1.08046e-05
2.74475e-07
-1.08975e-05
2.56749e-07
-1.09881e-05
2.36786e-07
-1.10764e-05
2.19246e-07
-1.11626e-05
2.04129e-07
-1.12462e-05
1.88203e-07
-1.1328e-05
1.77964e-07
-1.14073e-05
1.64229e-07
-1.14851e-05
1.56563e-07
-1.15611e-05
1.48832e-07
-1.16359e-05
1.44985e-07
-1.17096e-05
1.41801e-07
-1.17823e-05
1.3959e-07
-1.1854e-05
1.38054e-07
-1.19248e-05
1.38337e-07
-1.1995e-05
1.3925e-07
-1.20646e-05
1.41288e-07
-1.21337e-05
1.43893e-07
-1.22026e-05
1.47442e-07
-1.22713e-05
1.51679e-07
-1.23399e-05
1.5663e-07
-1.24084e-05
1.61988e-07
-1.24771e-05
1.67924e-07
-1.25459e-05
1.74115e-07
-1.26149e-05
1.80645e-07
-1.2684e-05
1.87276e-07
-1.27535e-05
1.93589e-07
-1.28232e-05
2.00373e-07
-1.28932e-05
2.07165e-07
-1.29634e-05
2.13891e-07
-1.30338e-05
2.20048e-07
-1.31044e-05
2.2617e-07
-1.3175e-05
2.31701e-07
-1.32454e-05
2.36842e-07
-1.33156e-05
2.41683e-07
-1.33854e-05
2.4562e-07
-1.34546e-05
2.48595e-07
-1.35231e-05
2.50985e-07
-1.35907e-05
2.52146e-07
-1.3657e-05
2.52541e-07
-1.37219e-05
2.51693e-07
-1.3785e-05
2.49662e-07
-1.38461e-05
2.46809e-07
-1.39048e-05
2.42285e-07
-1.39609e-05
2.36393e-07
-1.40139e-05
2.29253e-07
-1.40635e-05
2.20402e-07
-1.41094e-05
2.1031e-07
-1.41512e-05
1.98419e-07
-1.41883e-05
1.8499e-07
-1.42205e-05
1.70293e-07
-1.42472e-05
1.53607e-07
-1.42681e-05
1.35017e-07
-1.42828e-05
1.14983e-07
-1.42909e-05
9.2858e-08
-1.42919e-05
6.93462e-08
-1.42855e-05
4.42155e-08
-1.42711e-05
1.75592e-08
-1.42486e-05
-1.09896e-08
-1.42174e-05
-4.07178e-08
-1.41774e-05
-7.14146e-08
-1.41283e-05
-1.03414e-07
-1.40699e-05
-1.35929e-07
-1.40019e-05
-1.69457e-07
-1.39243e-05
-2.03224e-07
-1.38371e-05
-2.36864e-07
-1.37404e-05
-2.70526e-07
-1.3634e-05
-3.04809e-07
-1.35182e-05
-3.37718e-07
-1.33928e-05
-3.71812e-07
-1.32588e-05
-4.01665e-07
-1.31156e-05
-4.3522e-07
-1.29643e-05
-4.6343e-07
-1.28052e-05
-4.91709e-07
-1.2639e-05
-5.16902e-07
-1.24666e-05
-5.39924e-07
-1.22884e-05
-5.60953e-07
-1.21051e-05
-5.81218e-07
-1.19179e-05
-5.9709e-07
-1.17273e-05
-6.11825e-07
-1.15346e-05
-6.22184e-07
-1.134e-05
-6.34294e-07
-1.11459e-05
-6.37461e-07
-1.09557e-05
-6.28463e-07
-1.07711e-05
-6.17436e-07
-1.05999e-05
-5.73421e-07
-1.04432e-05
-5.33343e-07
-1.03144e-05
-4.3823e-07
-1.02226e-05
-3.03715e-07
-9.12638e-08
-1.12751e-05
-3.03924e-07
-1.1281e-05
4.14053e-08
-1.13245e-05
1.81641e-07
-1.13998e-05
3.36995e-07
-1.14955e-05
4.14587e-07
-1.15981e-05
4.17688e-07
-1.17081e-05
4.35987e-07
-1.18197e-05
4.23237e-07
-1.19309e-05
4.04451e-07
-1.20414e-05
3.85013e-07
-1.21509e-05
3.66256e-07
-1.22589e-05
3.44707e-07
-1.23651e-05
3.25442e-07
-1.24697e-05
3.08727e-07
-1.25721e-05
2.90652e-07
-1.26732e-05
2.79045e-07
-1.27719e-05
2.62981e-07
-1.28693e-05
2.53942e-07
-1.29651e-05
2.44638e-07
-1.30598e-05
2.3967e-07
-1.31534e-05
2.35421e-07
-1.3246e-05
2.32159e-07
-1.33375e-05
2.29524e-07
-1.3428e-05
2.28846e-07
-1.35176e-05
2.28872e-07
-1.36065e-05
2.30157e-07
-1.36946e-05
2.32037e-07
-1.37823e-05
2.35104e-07
-1.38694e-05
2.38828e-07
-1.39561e-05
2.43346e-07
-1.40425e-05
2.48319e-07
-1.41285e-05
2.53972e-07
-1.42143e-05
2.59904e-07
-1.42999e-05
2.6623e-07
-1.43853e-05
2.72662e-07
-1.44705e-05
2.78805e-07
-1.45555e-05
2.85428e-07
-1.46404e-05
2.92035e-07
-1.47251e-05
2.98565e-07
-1.48095e-05
3.04487e-07
-1.48936e-05
3.10284e-07
-1.49773e-05
3.15322e-07
-1.50603e-05
3.19859e-07
-1.51425e-05
3.23872e-07
-1.52237e-05
3.26897e-07
-1.53039e-05
3.28753e-07
-1.53828e-05
3.29857e-07
-1.54601e-05
3.29428e-07
-1.55355e-05
3.28027e-07
-1.56089e-05
3.25068e-07
-1.56799e-05
3.20609e-07
-1.57481e-05
3.15041e-07
-1.58132e-05
3.07426e-07
-1.58749e-05
2.98085e-07
-1.59328e-05
2.8715e-07
-1.59865e-05
2.74059e-07
-1.60356e-05
2.59373e-07
-1.60795e-05
2.42412e-07
-1.6118e-05
2.23482e-07
-1.61505e-05
2.02752e-07
-1.61765e-05
1.79643e-07
-1.61957e-05
1.54154e-07
-1.62075e-05
1.26805e-07
-1.62116e-05
9.6931e-08
-1.62074e-05
6.51853e-08
-1.61945e-05
3.1359e-08
-1.61726e-05
-4.39848e-09
-1.61412e-05
-4.2424e-08
-1.60998e-05
-8.20359e-08
-1.60483e-05
-1.22924e-07
-1.59863e-05
-1.65461e-07
-1.59135e-05
-2.08678e-07
-1.58298e-05
-2.53172e-07
-1.57351e-05
-2.97964e-07
-1.56293e-05
-3.42596e-07
-1.55126e-05
-3.8722e-07
-1.53849e-05
-4.32574e-07
-1.52464e-05
-4.76197e-07
-1.50971e-05
-5.21149e-07
-1.49379e-05
-5.60881e-07
-1.47682e-05
-6.04901e-07
-1.45893e-05
-6.42303e-07
-1.44015e-05
-6.79483e-07
-1.42058e-05
-7.12616e-07
-1.4003e-05
-7.42776e-07
-1.37938e-05
-7.70148e-07
-1.35789e-05
-7.9613e-07
-1.33597e-05
-8.16232e-07
-1.31371e-05
-8.34467e-07
-1.29124e-05
-8.46879e-07
-1.2686e-05
-8.60682e-07
-1.24605e-05
-8.62907e-07
-1.224e-05
-8.48987e-07
-1.20265e-05
-8.30992e-07
-1.18284e-05
-7.7148e-07
-1.16475e-05
-7.14237e-07
-1.14981e-05
-5.87672e-07
-1.13907e-05
-4.11103e-07
-1.3801e-07
-1.23862e-05
-3.79085e-07
-1.23925e-05
4.76637e-08
-1.24412e-05
2.30377e-07
-1.25215e-05
4.17322e-07
-1.26248e-05
5.17825e-07
-1.27377e-05
5.3064e-07
-1.28597e-05
5.57987e-07
-1.29849e-05
5.48387e-07
-1.31108e-05
5.30399e-07
-1.32372e-05
5.11361e-07
-1.33633e-05
4.92443e-07
-1.34888e-05
4.70139e-07
-1.36132e-05
4.49819e-07
-1.37365e-05
4.32093e-07
-1.38582e-05
4.12351e-07
-1.39789e-05
3.99758e-07
-1.40976e-05
3.81676e-07
-1.42151e-05
3.71457e-07
-1.43312e-05
3.60737e-07
-1.44463e-05
3.54718e-07
-1.45603e-05
3.4943e-07
-1.46732e-05
3.45084e-07
-1.4785e-05
3.41263e-07
-1.48956e-05
3.39502e-07
-1.50052e-05
3.38439e-07
-1.51138e-05
3.38719e-07
-1.52213e-05
3.39593e-07
-1.5328e-05
3.41832e-07
-1.54339e-05
3.44686e-07
-1.55389e-05
3.4839e-07
-1.56432e-05
3.52567e-07
-1.57467e-05
3.57505e-07
-1.58495e-05
3.62727e-07
-1.59517e-05
3.68383e-07
-1.60532e-05
3.74137e-07
-1.6154e-05
3.79624e-07
-1.62541e-05
3.85586e-07
-1.63536e-05
3.91496e-07
-1.64523e-05
3.97302e-07
-1.65503e-05
4.02431e-07
-1.66474e-05
4.07351e-07
-1.67434e-05
4.11351e-07
-1.68382e-05
4.14715e-07
-1.69317e-05
4.17335e-07
-1.70237e-05
4.18848e-07
-1.71139e-05
4.1897e-07
-1.72022e-05
4.1816e-07
-1.72882e-05
4.155e-07
-1.73718e-05
4.11631e-07
-1.74526e-05
4.0587e-07
-1.75303e-05
3.98275e-07
-1.76045e-05
3.89255e-07
-1.76749e-05
3.77786e-07
-1.7741e-05
3.64212e-07
-1.78025e-05
3.48667e-07
-1.7859e-05
3.30493e-07
-1.79099e-05
3.1034e-07
-1.79549e-05
2.87405e-07
-1.79935e-05
2.62037e-07
-1.80251e-05
2.34329e-07
-1.80492e-05
2.03796e-07
-1.80654e-05
1.70382e-07
-1.80733e-05
1.34656e-07
-1.80723e-05
9.59107e-08
-1.80619e-05
5.48083e-08
-1.80417e-05
1.11342e-08
-1.80112e-05
-3.48856e-08
-1.797e-05
-8.35924e-08
-1.79177e-05
-1.34342e-07
-1.78539e-05
-1.86697e-07
-1.77783e-05
-2.41077e-07
-1.76907e-05
-2.9631e-07
-1.75908e-05
-3.5307e-07
-1.74786e-05
-4.10199e-07
-1.7354e-05
-4.67113e-07
-1.72173e-05
-5.23972e-07
-1.70682e-05
-5.81639e-07
-1.69072e-05
-6.37193e-07
-1.67342e-05
-6.94152e-07
-1.65502e-05
-7.44903e-07
-1.63547e-05
-8.00426e-07
-1.61489e-05
-8.48046e-07
-1.59334e-05
-8.9503e-07
-1.57091e-05
-9.3692e-07
-1.5477e-05
-9.74901e-07
-1.52379e-05
-1.00917e-06
-1.49928e-05
-1.04124e-06
-1.47432e-05
-1.06583e-06
-1.44901e-05
-1.08761e-06
-1.4235e-05
-1.10198e-06
-1.39785e-05
-1.11714e-06
-1.37236e-05
-1.11784e-06
-1.34745e-05
-1.09806e-06
-1.32338e-05
-1.07167e-06
-1.30105e-05
-9.9481e-07
-1.2807e-05
-9.17736e-07
-1.26383e-05
-7.56417e-07
-1.25163e-05
-5.33105e-07
-1.92904e-07
-1.34733e-05
-4.58565e-07
-1.34797e-05
5.41054e-08
-1.35335e-05
2.84173e-07
-1.36196e-05
5.03387e-07
-1.37309e-05
6.2917e-07
-1.38548e-05
6.54541e-07
-1.39894e-05
6.92586e-07
-1.41286e-05
6.87617e-07
-1.42699e-05
6.71638e-07
-1.44126e-05
6.54105e-07
-1.45561e-05
6.35925e-07
-1.46997e-05
6.13765e-07
-1.4843e-05
5.93084e-07
-1.49858e-05
5.74918e-07
-1.51275e-05
5.5401e-07
-1.52685e-05
5.40772e-07
-1.54078e-05
5.20988e-07
-1.55461e-05
5.09751e-07
-1.56831e-05
4.97747e-07
-1.58191e-05
4.90715e-07
-1.59541e-05
4.84375e-07
-1.60878e-05
4.78872e-07
-1.62203e-05
4.73736e-07
-1.63515e-05
4.70693e-07
-1.64814e-05
4.6829e-07
-1.66099e-05
4.67264e-07
-1.67371e-05
4.66782e-07
-1.68631e-05
4.67816e-07
-1.69878e-05
4.69382e-07
-1.71112e-05
4.71812e-07
-1.72333e-05
4.74714e-07
-1.73543e-05
4.78436e-07
-1.7474e-05
4.82429e-07
-1.75925e-05
4.86873e-07
-1.77097e-05
4.91399e-07
-1.78258e-05
4.95671e-07
-1.79406e-05
5.00396e-07
-1.80541e-05
5.05027e-07
-1.81663e-05
5.09515e-07
-1.82771e-05
5.13246e-07
-1.83865e-05
5.16679e-07
-1.84941e-05
5.19017e-07
-1.86e-05
5.20574e-07
-1.87038e-05
5.21151e-07
-1.88055e-05
5.2049e-07
-1.89047e-05
5.18217e-07
-1.90013e-05
5.1481e-07
-1.90951e-05
5.09224e-07
-1.91856e-05
5.02175e-07
-1.92726e-05
4.92889e-07
-1.93558e-05
4.81409e-07
-1.94347e-05
4.68176e-07
-1.9509e-05
4.52066e-07
-1.95782e-05
4.33458e-07
-1.9642e-05
4.12474e-07
-1.96999e-05
3.88376e-07
-1.97514e-05
3.61878e-07
-1.97961e-05
3.32078e-07
-1.98334e-05
2.99349e-07
-1.98628e-05
2.63705e-07
-1.98838e-05
2.24774e-07
-1.98958e-05
1.82444e-07
-1.98985e-05
1.37311e-07
-1.98913e-05
8.86598e-08
-1.98736e-05
3.71279e-08
-1.9845e-05
-1.74784e-08
-1.9805e-05
-7.48902e-08
-1.97531e-05
-1.3543e-07
-1.9689e-05
-1.98496e-07
-1.96121e-05
-2.63524e-07
-1.95223e-05
-3.30949e-07
-1.94192e-05
-3.99397e-07
-1.93026e-05
-4.69636e-07
-1.91725e-05
-5.40281e-07
-1.9029e-05
-6.10655e-07
-1.88721e-05
-6.809e-07
-1.87017e-05
-7.51987e-07
-1.85183e-05
-8.20558e-07
-1.8322e-05
-8.90536e-07
-1.81135e-05
-9.53325e-07
-1.78927e-05
-1.02124e-06
-1.76608e-05
-1.07998e-06
-1.74183e-05
-1.13754e-06
-1.71663e-05
-1.1889e-06
-1.69059e-05
-1.23528e-06
-1.66382e-05
-1.27691e-06
-1.63641e-05
-1.31533e-06
-1.60854e-05
-1.34454e-06
-1.58032e-05
-1.36983e-06
-1.55192e-05
-1.38599e-06
-1.52342e-05
-1.4021e-06
-1.49514e-05
-1.40067e-06
-1.46753e-05
-1.37413e-06
-1.44091e-05
-1.33786e-06
-1.4162e-05
-1.24194e-06
-1.39373e-05
-1.14236e-06
-1.37505e-05
-9.43224e-07
-1.3615e-05
-6.6868e-07
-2.55127e-07
-1.45509e-05
-5.39617e-07
-1.45586e-05
6.17878e-08
-1.46187e-05
3.44206e-07
-1.47107e-05
5.9539e-07
-1.48303e-05
7.48841e-07
-1.49657e-05
7.89894e-07
-1.51134e-05
8.40302e-07
-1.52675e-05
8.41705e-07
-1.54249e-05
8.28999e-07
-1.55849e-05
8.1413e-07
-1.57466e-05
7.97599e-07
-1.59093e-05
7.76466e-07
-1.60723e-05
7.56104e-07
-1.62354e-05
7.38066e-07
-1.63979e-05
7.16465e-07
-1.656e-05
7.02896e-07
-1.67207e-05
6.8169e-07
-1.68805e-05
6.69544e-07
-1.70391e-05
6.56337e-07
-1.71966e-05
6.4825e-07
-1.7353e-05
6.40788e-07
-1.75081e-05
6.33988e-07
-1.76618e-05
6.27351e-07
-1.78139e-05
6.22779e-07
-1.79643e-05
6.18716e-07
-1.8113e-05
6.16004e-07
-1.826e-05
6.13757e-07
-1.84053e-05
6.13108e-07
-1.85488e-05
6.12894e-07
-1.86905e-05
6.13521e-07
-1.88304e-05
6.14593e-07
-1.89685e-05
6.16518e-07
-1.91047e-05
6.18677e-07
-1.92391e-05
6.21297e-07
-1.93717e-05
6.23973e-07
-1.95024e-05
6.26405e-07
-1.96313e-05
6.29247e-07
-1.97582e-05
6.31942e-07
-1.98831e-05
6.34443e-07
-2.0006e-05
6.36095e-07
-2.01267e-05
6.37359e-07
-2.0245e-05
6.37352e-07
-2.03608e-05
6.36409e-07
-2.04739e-05
6.34254e-07
-2.05842e-05
6.30717e-07
-2.06913e-05
6.2534e-07
-2.07951e-05
6.18605e-07
-2.08952e-05
6.0937e-07
-2.09915e-05
5.98397e-07
-2.10834e-05
5.84831e-07
-2.11707e-05
5.68708e-07
-2.1253e-05
5.50464e-07
-2.13298e-05
5.28928e-07
-2.14009e-05
5.04476e-07
-2.14656e-05
4.77225e-07
-2.15236e-05
4.46363e-07
-2.15744e-05
4.12657e-07
-2.16174e-05
3.75117e-07
-2.16522e-05
3.34127e-07
-2.16781e-05
2.89646e-07
-2.16947e-05
2.41374e-07
-2.17015e-05
1.89173e-07
-2.16978e-05
1.33661e-07
-2.16832e-05
7.40821e-08
-2.16572e-05
1.11031e-08
-2.16192e-05
-5.54725e-08
-2.15688e-05
-1.25342e-07
-2.15054e-05
-1.98792e-07
-2.14286e-05
-2.75272e-07
-2.13381e-05
-3.54077e-07
-2.12334e-05
-4.3565e-07
-2.11144e-05
-5.18419e-07
-2.09808e-05
-6.03219e-07