/*--------------------------------*- C++ -*----------------------------------*\
| =========                 |                                                 |
| \\      /  F ield         | OpenFOAM: The Open Source CFD Toolbox           |
|  \\    /   O peration     | Version:  2112                                  |
|   \\  /    A nd           | Website:  www.openfoam.com                      |
|    \\/     M anipulation  |                                                 |
\*---------------------------------------------------------------------------*/
FoamFile
{
    version     2.0;
    format      ascii;
    arch        "LSB;label=32;scalar=64";
    class       volVectorField;
    location    "1225";
    object      U;
}
// * * * * * * * * * * * * * * * * * * * * * * * * * * * * * * * * * * * * * //

dimensions      [0 1 -1 0 0 0 0];

internalField   nonuniform List<vector> 
14751
(
(0.00155151 1.13552e-07 0)
(0.00154509 -6.09403e-08 0)
(0.00154594 1.03201e-07 -2.19463e-26)
(0.00153785 8.47765e-08 2.19592e-26)
(0.00153205 1.41117e-07 -4.12362e-26)
(0.00152138 1.74965e-07 6.90499e-25)
(0.00150921 1.97037e-07 0)
(0.00149524 2.28206e-07 -9.30018e-27)
(0.00147913 2.48139e-07 3.35763e-28)
(0.00146157 2.64853e-07 -8.33067e-27)
(0.00144272 2.74702e-07 6.26392e-28)
(0.00142281 2.8247e-07 1.06718e-24)
(0.00140196 2.84772e-07 0)
(0.00138069 2.8226e-07 -3.01339e-26)
(0.00135909 2.77893e-07 -9.18862e-25)
(0.00133749 2.65852e-07 -4.60165e-25)
(0.00131608 2.55321e-07 2.75706e-26)
(0.0012949 2.37824e-07 -2.75955e-26)
(0.00127426 2.22121e-07 -4.25332e-25)
(0.00125418 2.03307e-07 -4.16603e-25)
(0.00123493 1.85528e-07 0)
(0.00121645 1.67814e-07 -4.28432e-25)
(0.00119885 1.51489e-07 2.50782e-26)
(0.0011822 1.35882e-07 -2.46594e-26)
(0.0011666 1.21617e-07 2.4678e-26)
(0.00115196 1.07562e-07 7.86265e-25)
(0.00113833 9.54744e-08 0)
(0.00112571 8.34102e-08 1.97702e-25)
(0.00111408 7.30058e-08 0)
(0.00110348 6.32214e-08 0)
(0.0010939 5.44044e-08 0)
(0.00108531 4.61992e-08 0)
(0.00107769 3.88461e-08 0)
(0.00107102 3.20083e-08 1.34588e-26)
(0.00106531 2.57745e-08 -1.3463e-26)
(0.00106047 1.96926e-08 4.57761e-25)
(0.00105647 1.45376e-08 -4.67311e-25)
(0.00105333 9.76644e-09 -4.63442e-25)
(0.00105103 5.31141e-09 0)
(0.00104949 3.98054e-10 0)
(0.00104866 -3.91474e-09 3.92952e-27)
(0.0010486 -6.43802e-09 -3.92964e-27)
(0.00104925 -9.83394e-09 -4.12323e-27)
(0.00105062 -1.19678e-08 4.12332e-27)
(0.00105269 -1.49095e-08 2.16326e-27)
(0.00105537 -1.73613e-08 -2.16328e-27)
(0.00105865 -1.98291e-08 -1.13412e-27)
(0.0010625 -2.17756e-08 -2.92593e-25)
(0.00106688 -2.3868e-08 0)
(0.00107179 -2.55864e-08 3.03637e-28)
(0.00107716 -2.70723e-08 -3.03613e-28)
(0.00108301 -2.83252e-08 -6.34224e-28)
(0.00108932 -2.95214e-08 6.34162e-28)
(0.00109601 -3.05808e-08 1.32194e-27)
(0.0011031 -3.15806e-08 3.43165e-25)
(0.00111053 -3.21576e-08 -5.44526e-27)
(0.0011183 -3.29565e-08 2.74849e-27)
(0.00112639 -3.33561e-08 0)
(0.00113474 -3.37199e-08 0)
(0.00114339 -3.31247e-08 0)
(0.00115234 -3.34448e-08 -1.52236e-24)
(0.00116151 -3.24199e-08 -3.08075e-24)
(0.00117093 -3.30459e-08 -1.21722e-26)
(0.00118049 -3.3757e-08 -1.25292e-26)
(0.00119016 -3.33853e-08 -1.28685e-26)
(0.0012 -3.31438e-08 8.68841e-25)
(0.00120999 -3.31022e-08 -8.53549e-25)
(0.00122009 -3.33727e-08 0)
(0.00123028 -3.32362e-08 2.6599e-26)
(0.0012406 -3.34766e-08 -2.65872e-26)
(0.00125102 -3.36724e-08 0)
(0.00126155 -3.44961e-08 0)
(0.00127219 -3.52802e-08 0)
(0.00128293 -3.66229e-08 0)
(0.00129379 -3.85557e-08 1.11342e-25)
(0.00130479 -4.11452e-08 -5.61723e-26)
(0.00131592 -4.37162e-08 -1.12916e-25)
(0.0013272 -4.81851e-08 1.13094e-25)
(0.0013386 -5.11255e-08 -1.13307e-25)
(0.00135021 -5.90607e-08 -5.68336e-26)
(0.001362 -6.31275e-08 1.14119e-25)
(0.00137391 -7.25204e-08 0)
(0.00138607 -7.99459e-08 0)
(0.00139833 -8.99012e-08 -5.71061e-26)
(0.00141078 -9.94246e-08 5.70559e-26)
(0.00142336 -1.09762e-07 0)
(0.00143602 -1.18398e-07 0)
(0.00144869 -1.28627e-07 0)
(0.00146128 -1.35518e-07 0)
(0.00147376 -1.45715e-07 -1.79379e-24)
(0.0014859 -1.48481e-07 1.3836e-26)
(0.0014975 -1.50865e-07 0)
(0.00150878 -1.54706e-07 1.33823e-26)
(0.00151886 -1.39615e-07 6.65205e-26)
(0.00152805 -1.45459e-07 -3.8933e-26)
(0.00153625 -1.25661e-07 1.29601e-26)
(0.00154155 -1.0027e-07 4.09503e-25)
(0.00154322 -2.61577e-08 -6.25722e-27)
(0.00155108 -1.80557e-07 -7.73642e-25)
(0.00461817 6.37947e-07 -3.4811e-23)
(0.00459961 3.35627e-08 0)
(0.0045981 6.38582e-07 -6.41022e-23)
(0.00457791 7.38485e-07 -2.0424e-24)
(0.00456276 1.0028e-06 1.21259e-22)
(0.00453675 1.27986e-06 1.97794e-24)
(0.00450668 1.43035e-06 9.35945e-25)
(0.00447203 1.62567e-06 0)
(0.00443196 1.77736e-06 -1.17191e-22)
(0.0043881 1.90279e-06 6.80543e-24)
(0.00434082 1.99828e-06 0)
(0.00429074 2.07597e-06 -1.56519e-24)
(0.00423821 2.12555e-06 0)
(0.00418444 2.14765e-06 0)
(0.00412977 2.15545e-06 8.16261e-23)
(0.00407496 2.12818e-06 1.19975e-23)
(0.00402054 2.10338e-06 -8.67529e-23)
(0.00396667 2.04689e-06 -2.09375e-23)
(0.00391409 1.98927e-06 2.16705e-23)
(0.00386296 1.91319e-06 6.37452e-25)
(0.00381391 1.83005e-06 9.97276e-24)
(0.00376685 1.74083e-06 -9.38793e-24)
(0.00372206 1.64775e-06 0)
(0.00367973 1.55009e-06 0)
(0.00364012 1.45012e-06 0)
(0.00360306 1.34629e-06 -1.22176e-24)
(0.00356868 1.24537e-06 6.86441e-23)
(0.00353697 1.14122e-06 8.85093e-23)
(0.00350792 1.04105e-06 0)
(0.00348165 9.41192e-07 -3.52223e-23)
(0.00345809 8.44246e-07 -4.5909e-23)
(0.0034372 7.48965e-07 4.14703e-23)
(0.00341896 6.56714e-07 0)
(0.0034033 5.66114e-07 -5.4245e-24)
(0.00339022 4.78454e-07 5.48333e-23)
(0.00337953 3.93354e-07 -9.07497e-24)
(0.00337115 3.12445e-07 3.54874e-24)
(0.00336513 2.33388e-07 2.41657e-23)
(0.00336138 1.57084e-07 0)
(0.00335975 8.19602e-08 0)
(0.00336009 1.06059e-08 -3.18425e-24)
(0.00336252 -5.40907e-08 3.18543e-24)
(0.00336692 -1.19128e-07 -1.15397e-23)
(0.00337325 -1.78877e-07 -1.67184e-24)
(0.0033815 -2.38882e-07 0)
(0.00339141 -2.94486e-07 0)
(0.00340295 -3.4854e-07 0)
(0.00341602 -3.98611e-07 4.18583e-24)
(0.00343055 -4.47322e-07 0)
(0.00344645 -4.92422e-07 0)
(0.00346362 -5.34817e-07 5.02792e-25)
(0.00348203 -5.75039e-07 -5.02526e-25)
(0.00350161 -6.12687e-07 0)
(0.00352221 -6.47778e-07 8.46643e-24)
(0.00354379 -6.80936e-07 -1.78051e-23)
(0.00356624 -7.10777e-07 -2.22031e-24)
(0.00358951 -7.39794e-07 1.78733e-23)
(0.00361351 -7.65179e-07 2.25804e-24)
(0.00363814 -7.88882e-07 -3.24019e-23)
(0.00366344 -8.08872e-07 4.66953e-24)
(0.00368939 -8.2977e-07 7.21199e-24)
(0.00371578 -8.45041e-07 3.82797e-26)
(0.00374266 -8.63941e-07 0)
(0.00376975 -8.80356e-07 1.00419e-23)
(0.00379696 -8.92492e-07 -1.00265e-23)
(0.00382442 -9.0486e-07 -1.27684e-24)
(0.00385205 -9.16426e-07 1.29084e-24)
(0.00387976 -9.27356e-07 0)
(0.00390745 -9.36099e-07 0)
(0.00393522 -9.45674e-07 8.49694e-23)
(0.00396299 -9.53973e-07 0)
(0.00399076 -9.63935e-07 -2.16554e-23)
(0.00401852 -9.72669e-07 2.16046e-23)
(0.00404623 -9.82867e-07 0)
(0.00407394 -9.95137e-07 -1.71257e-25)
(0.00410167 -1.00854e-06 0)
(0.0041294 -1.02099e-06 1.72455e-25)
(0.00415715 -1.03857e-06 0)
(0.00418491 -1.05061e-06 1.77402e-22)
(0.00421278 -1.07871e-06 0)
(0.00424076 -1.08852e-06 -1.73088e-25)
(0.00426865 -1.11563e-06 -1.77e-22)
(0.00429676 -1.1328e-06 1.76581e-22)
(0.00432475 -1.15594e-06 -1.75987e-22)
(0.00435278 -1.17607e-06 0)
(0.00438073 -1.19483e-06 0)
(0.00440842 -1.20422e-06 0)
(0.00443566 -1.21606e-06 -1.71694e-22)
(0.00446227 -1.21253e-06 -1.70109e-22)
(0.00448808 -1.21322e-06 2.62991e-24)
(0.00451258 -1.17613e-06 5.17153e-24)
(0.00453526 -1.13649e-06 -5.1512e-24)
(0.00455649 -1.09085e-06 6.27093e-25)
(0.00457461 -9.71492e-07 -7.80027e-25)
(0.00459012 -9.19565e-07 -1.60826e-22)
(0.00460276 -7.13769e-07 4.82201e-24)
(0.00460852 -4.58362e-07 -1.5035e-22)
(0.00460924 -2.70169e-07 0)
(0.00462093 -7.21028e-07 1.12021e-24)
(0.00768411 1.59997e-06 9.97575e-23)
(0.00765375 5.60353e-07 2.00786e-24)
(0.00764827 1.71897e-06 6.51857e-23)
(0.0076221 2.06734e-06 2.5045e-22)
(0.0076034 2.66455e-06 -1.35003e-22)
(0.00757144 3.36767e-06 7.41504e-24)
(0.00753356 3.80462e-06 0)
(0.00748936 4.32788e-06 0)
(0.00743749 4.76592e-06 -3.3293e-22)
(0.00738003 5.13442e-06 1.31652e-23)
(0.00731754 5.43315e-06 3.76371e-22)
(0.00725088 5.67631e-06 3.8983e-22)
(0.00718062 5.85326e-06 8.36583e-25)
(0.00710833 5.95863e-06 3.90238e-22)
(0.00703461 6.01682e-06 -4.68215e-22)
(0.00696044 5.99107e-06 2.21003e-23)
(0.00688666 5.95272e-06 -2.12981e-22)
(0.0068135 5.83696e-06 -4.21594e-23)
(0.00674207 5.70291e-06 0)
(0.0066726 5.52168e-06 -3.01354e-22)
(0.006606 5.31137e-06 2.97003e-22)
(0.00654219 5.08035e-06 0)
(0.00648159 4.83164e-06 0)
(0.00642447 4.56746e-06 0)
(0.00637119 4.28902e-06 1.54887e-22)
(0.00632161 3.99767e-06 0)
(0.00627591 3.70785e-06 9.74558e-23)
(0.00623411 3.40629e-06 -9.8087e-23)
(0.00619622 3.11137e-06 1.58545e-22)
(0.00616238 2.81453e-06 4.0118e-23)
(0.00613252 2.52263e-06 5.09352e-23)
(0.00610663 2.23348e-06 -5.16221e-23)
(0.00608463 1.95017e-06 -1.79003e-22)
(0.00606648 1.67038e-06 2.14673e-23)
(0.00605213 1.39774e-06 -5.46544e-23)
(0.00604139 1.13143e-06 -1.13088e-23)
(0.0060341 8.75987e-07 5.53897e-24)
(0.00603033 6.2532e-07 -1.76283e-23)
(0.00602996 3.826e-07 0)
(0.00603279 1.44444e-07 4.91123e-23)
(0.00603861 -8.20326e-08 6.36463e-24)
(0.00604754 -2.94991e-07 -6.36628e-24)
(0.00605938 -5.05279e-07 1.31997e-23)
(0.0060741 -7.01531e-07 0)
(0.00609164 -8.95789e-07 -2.76942e-23)
(0.00611164 -1.07696e-06 1.79345e-24)
(0.00613403 -1.25188e-06 -1.79258e-24)
(0.00615867 -1.4155e-06 -2.77273e-24)
(0.00618541 -1.57292e-06 6.65259e-24)
(0.00621413 -1.71969e-06 4.87628e-25)
(0.00624464 -1.85789e-06 -8.17038e-24)
(0.00627688 -1.98829e-06 0)
(0.00631072 -2.11032e-06 2.08568e-24)
(0.00634593 -2.22355e-06 -1.4754e-23)
(0.00638241 -2.32959e-06 2.14042e-23)
(0.00642 -2.42588e-06 7.42977e-23)
(0.00645857 -2.51708e-06 -1.32108e-23)
(0.00649799 -2.598e-06 -8.95813e-24)
(0.00653807 -2.67286e-06 4.60153e-23)
(0.00657882 -2.73727e-06 1.86567e-23)
(0.00662019 -2.80154e-06 1.51617e-22)
(0.00666186 -2.85136e-06 -1.53433e-22)
(0.00670381 -2.90411e-06 -2.92476e-23)
(0.00674571 -2.94984e-06 -1.38006e-22)
(0.0067874 -2.98415e-06 -1.59408e-22)
(0.00682897 -3.01774e-06 -1.81429e-22)
(0.00687029 -3.04702e-06 4.06957e-23)
(0.00691122 -3.07348e-06 -2.04205e-23)
(0.00695157 -3.09293e-06 3.31523e-22)
(0.00699145 -3.11291e-06 -4.1559e-23)
(0.00703073 -3.12867e-06 -8.41167e-23)
(0.00706937 -3.14625e-06 4.21336e-23)
(0.00710734 -3.15983e-06 -4.27335e-23)
(0.00714457 -3.1752e-06 8.55137e-23)
(0.00718109 -3.19394e-06 -4.27737e-23)
(0.00721693 -3.2137e-06 0)
(0.00725203 -3.23041e-06 3.45242e-22)
(0.00728642 -3.2555e-06 -6.91413e-22)
(0.00732008 -3.26983e-06 5.18782e-22)
(0.0073531 -3.31204e-06 6.91399e-22)
(0.00738552 -3.31667e-06 -8.63914e-23)
(0.007417 -3.35072e-06 2.58192e-22)
(0.007448 -3.36286e-06 -1.71592e-22)
(0.00747806 -3.38222e-06 8.54056e-22)
(0.00750742 -3.39011e-06 7.21822e-22)
(0.00753586 -3.38722e-06 -7.17017e-22)
(0.00756318 -3.35858e-06 0)
(0.00758909 -3.32631e-06 1.24476e-22)
(0.00761341 -3.25405e-06 2.05208e-22)
(0.00763582 -3.17539e-06 -6.28362e-22)
(0.0076557 -3.01089e-06 -6.59964e-22)
(0.0076724 -2.82518e-06 4.89772e-24)
(0.00768635 -2.61485e-06 -6.25104e-22)
(0.00769596 -2.26085e-06 0)
(0.00770173 -2.00993e-06 1.58679e-22)
(0.00770369 -1.4434e-06 -9.22436e-24)
(0.00769775 -8.39434e-07 1.40938e-22)
(0.00768965 -4.87391e-07 2.20932e-24)
(0.00769415 -1.14477e-06 2.14106e-24)
(0.01062 3.01071e-06 -6.04139e-23)
(0.0105782 1.84062e-06 0)
(0.0105666 3.61323e-06 -4.60252e-22)
(0.0105367 4.44606e-06 -2.31021e-22)
(0.0105161 5.51417e-06 2.24592e-25)
(0.0104824 6.79669e-06 8.53392e-22)
(0.0104416 7.69258e-06 0)
(0.0103938 8.6852e-06 0)
(0.0103371 9.54755e-06 1.15907e-21)
(0.0102739 1.02773e-05 2.29786e-23)
(0.0102048 1.0882e-05 3.17466e-22)
(0.0101308 1.13687e-05 -3.50843e-22)
(0.0100527 1.17349e-05 7.03883e-22)
(0.00997216 1.19631e-05 -3.31191e-22)
(0.00989002 1.209e-05 3.22009e-22)
(0.00980735 1.20693e-05 -6.27351e-22)
(0.00972518 1.19975e-05 3.06098e-22)
(0.0096438 1.17898e-05 -6.35868e-22)
(0.00956453 1.15276e-05 3.71605e-23)
(0.00948768 1.11785e-05 3.245e-22)
(0.00941424 1.07642e-05 -3.55979e-22)
(0.0093442 1.03048e-05 3.5476e-23)
(0.00927804 9.80416e-06 -3.47719e-23)
(0.00921608 9.2705e-06 3.49091e-23)
(0.00915867 8.70248e-06 -1.04114e-22)
(0.00910578 8.10849e-06 -3.47724e-23)
(0.00905759 7.50996e-06 -1.56954e-22)
(0.00901413 6.88766e-06 2.80771e-22)
(0.00897543 6.27376e-06 -1.41872e-22)
(0.00894163 5.6544e-06 -2.68943e-22)
(0.00891267 5.04181e-06 3.09047e-22)
(0.00888851 4.43361e-06 -1.83336e-23)
(0.0088691 3.83522e-06 1.50251e-22)
(0.00885434 3.24437e-06 0)
(0.00884418 2.66642e-06 1.56192e-22)
(0.00883843 2.09941e-06 1.00753e-23)
(0.00883691 1.55364e-06 2.19273e-25)
(0.00883967 1.01829e-06 1.45902e-22)
(0.00884655 4.9986e-07 1.81186e-22)
(0.00885735 -8.13881e-09 -1.31014e-22)
(0.00887184 -4.90828e-07 -5.65738e-24)
(0.00889005 -9.49591e-07 5.65676e-24)
(0.00891177 -1.39834e-06 0)
(0.00893692 -1.81882e-06 0)
(0.00896538 -2.23212e-06 2.45823e-23)
(0.00899678 -2.61862e-06 0)
(0.00903101 -2.98945e-06 -5.14866e-23)
(0.00906787 -3.33721e-06 0)
(0.00910715 -3.66898e-06 -6.72973e-24)
(0.00914869 -3.97865e-06 -2.14898e-25)
(0.00919226 -4.26925e-06 8.79847e-24)
(0.00923773 -4.54123e-06 -5.39595e-24)
(0.00928493 -4.79524e-06 3.61816e-24)
(0.00933356 -5.02939e-06 0)
(0.00938348 -5.24674e-06 7.67247e-24)
(0.00943447 -5.44373e-06 -7.73578e-23)
(0.00948634 -5.62683e-06 7.7976e-24)
(0.0095389 -5.78949e-06 0)
(0.00959191 -5.93779e-06 1.13742e-22)
(0.00964533 -6.06393e-06 9.91328e-23)
(0.00969901 -6.18687e-06 -1.17508e-22)
(0.00975262 -6.28237e-06 1.18898e-22)
(0.00980604 -6.37696e-06 -2.75965e-22)
(0.00985893 -6.45847e-06 1.56938e-22)
(0.00991108 -6.51728e-06 1.41292e-22)
(0.00996252 -6.57221e-06 1.06941e-22)
(0.0100131 -6.61666e-06 3.58748e-23)
(0.0100625 -6.65498e-06 -3.66653e-23)
(0.0101106 -6.6784e-06 3.67901e-22)
(0.0101574 -6.70055e-06 -6.30549e-22)
(0.0102028 -6.71394e-06 -3.75646e-23)
(0.0102467 -6.72771e-06 3.74762e-23)
(0.010289 -6.73415e-06 -7.60739e-23)
(0.0103296 -6.74155e-06 7.58834e-23)
(0.0103685 -6.75199e-06 -7.67993e-23)
(0.0104058 -6.76299e-06 7.65798e-23)
(0.0104413 -6.76933e-06 -1.00195e-21)
(0.0104751 -6.78569e-06 1.23517e-21)
(0.0105072 -6.78682e-06 -1.77846e-21)
(0.0105375 -6.82211e-06 -6.18792e-22)
(0.0105663 -6.80278e-06 -1.2368e-21)
(0.0105929 -6.81759e-06 -1.23494e-21)
(0.0106181 -6.79833e-06 1.23176e-21)
(0.0106412 -6.7815e-06 -6.13658e-22)
(0.0106625 -6.73892e-06 6.10747e-22)
(0.0106818 -6.66854e-06 6.07198e-22)
(0.0106989 -6.54983e-06 -1.20581e-21)
(0.0107133 -6.41123e-06 -1.19582e-21)
(0.0107251 -6.19874e-06 -3.68871e-23)
(0.0107336 -5.95406e-06 6.58802e-22)
(0.0107385 -5.56969e-06 5.41956e-22)
(0.0107388 -5.12667e-06 0)
(0.0107352 -4.62792e-06 1.68286e-21)
(0.0107265 -3.91316e-06 -7.47228e-24)
(0.0107132 -3.2969e-06 8.52655e-24)
(0.0106961 -2.23143e-06 8.21678e-24)
(0.0106721 -1.16115e-06 -8.19791e-24)
(0.0106498 -5.13096e-07 9.59958e-28)
(0.0106406 -1.08829e-06 -9.74195e-25)
(0.013218 4.95669e-06 -6.35259e-27)
(0.0131642 4.034e-06 3.18228e-24)
(0.0131431 6.44076e-06 -3.19899e-24)
(0.0131071 7.95065e-06 0)
(0.0130815 9.5884e-06 -7.55633e-22)
(0.0130436 1.1531e-05 -7.32591e-22)
(0.0129983 1.30127e-05 0)
(0.0129459 1.45555e-05 0)
(0.0128845 1.59211e-05 -6.64631e-22)
(0.0128162 1.70753e-05 -6.62629e-22)
(0.0127418 1.80371e-05 -6.01904e-22)
(0.0126626 1.88003e-05 0)
(0.0125793 1.93761e-05 -1.16438e-21)
(0.0124938 1.97322e-05 0)
(0.0124069 1.99161e-05 -5.47422e-22)
(0.0123198 1.98795e-05 5.32111e-22)
(0.0122336 1.97326e-05 4.5433e-22)
(0.0121487 1.93862e-05 5.70081e-22)
(0.0120665 1.89336e-05 4.95237e-22)
(0.0119873 1.83482e-05 0)
(0.011912 1.76523e-05 4.78559e-22)
(0.0118409 1.68794e-05 0)
(0.0117742 1.60349e-05 -4.68074e-22)
(0.0117125 1.51348e-05 -4.65133e-22)
(0.0116559 1.41763e-05 2.89435e-23)
(0.0116045 1.31767e-05 -2.20723e-26)
(0.0115585 1.21626e-05 -2.90436e-23)
(0.0115179 1.11129e-05 2.33766e-22)
(0.0114827 1.00723e-05 2.9596e-23)
(0.011453 9.02274e-06 2.08557e-22)
(0.0114288 7.98123e-06 -2.5644e-22)
(0.0114101 6.94673e-06 1.51997e-23)
(0.0113967 5.9271e-06 1.56936e-23)
(0.0113885 4.92097e-06 -1.57071e-23)
(0.0113855 3.93563e-06 -1.29214e-22)
(0.0113875 2.9685e-06 -2.63772e-22)
(0.0113942 2.03618e-06 0)
(0.0114057 1.1237e-06 -1.46479e-22)
(0.0114219 2.40123e-07 -1.32237e-22)
(0.0114424 -6.23127e-07 6.30069e-23)
(0.011467 -1.4439e-06 9.12335e-24)
(0.0114957 -2.22724e-06 -9.56771e-24)
(0.0115283 -2.98778e-06 9.56499e-24)
(0.0115646 -3.70229e-06 0)
(0.0116044 -4.39978e-06 0)
(0.0116474 -5.05306e-06 0)
(0.0116935 -5.67649e-06 4.25255e-23)
(0.0117423 -6.26126e-06 0)
(0.0117937 -6.81539e-06 -2.29449e-23)
(0.0118474 -7.33225e-06 7.02489e-25)
(0.0119032 -7.81517e-06 -1.46768e-24)
(0.0119609 -8.26404e-06 -1.53023e-24)
(0.0120203 -8.68158e-06 -3.12099e-24)
(0.012081 -9.0641e-06 6.10876e-24)
(0.0121429 -9.41609e-06 1.00667e-22)
(0.0122057 -9.73354e-06 0)
(0.0122691 -1.00241e-05 1.31743e-23)
(0.012333 -1.02812e-05 2.4048e-25)
(0.012397 -1.05117e-05 -1.21436e-22)
(0.0124611 -1.07052e-05 -1.23411e-22)
(0.012525 -1.08888e-05 1.40505e-23)
(0.0125884 -1.103e-05 1.44757e-23)
(0.0126511 -1.11623e-05 2.01104e-22)
(0.0127128 -1.12734e-05 -2.92924e-23)
(0.0127732 -1.13488e-05 2.92618e-23)
(0.0128322 -1.1414e-05 3.00176e-23)
(0.0128897 -1.14606e-05 -5.43141e-22)
(0.0129454 -1.14959e-05 3.03262e-23)
(0.0129991 -1.15065e-05 -4.93167e-22)
(0.0130508 -1.15117e-05 4.35375e-22)
(0.0131001 -1.15021e-05 -6.05496e-25)
(0.0131471 -1.14896e-05 6.30217e-23)
(0.0131916 -1.14673e-05 0)
(0.0132336 -1.1445e-05 1.09159e-21)
(0.013273 -1.14242e-05 -6.43431e-23)
(0.0133097 -1.14022e-05 0)
(0.0133438 -1.13728e-05 5.21439e-22)
(0.0133751 -1.13521e-05 -5.23266e-22)
(0.0134037 -1.1312e-05 1.0493e-21)
(0.0134294 -1.13045e-05 0)
(0.0134525 -1.12303e-05 1.1838e-21)
(0.0134724 -1.11838e-05 1.05238e-21)
(0.0134896 -1.1092e-05 -1.18237e-21)
(0.0135036 -1.09902e-05 0)
(0.0135147 -1.08436e-05 -1.11097e-21)
(0.0135225 -1.06459e-05 -9.76106e-22)
(0.0135269 -1.03731e-05 1.10017e-21)
(0.0135274 -1.00538e-05 1.99288e-21)
(0.0135239 -9.62168e-06 -9.88546e-22)
(0.013516 -9.11963e-06 -3.16867e-23)
(0.013503 -8.42685e-06 9.99353e-22)
(0.0134844 -7.62433e-06 -9.94392e-22)
(0.0134608 -6.72694e-06 -9.65161e-22)
(0.0134315 -5.54895e-06 0)
(0.0133971 -4.43261e-06 -9.26711e-22)
(0.0133591 -2.79695e-06 -7.40611e-24)
(0.013316 -1.17034e-06 -7.13903e-24)
(0.0132771 -5.72112e-08 -8.36714e-28)
(0.0132515 -2.72853e-07 -8.48302e-25)
(0.0154128 7.56828e-06 5.47114e-27)
(0.0153461 7.20218e-06 -5.4867e-27)
(0.0153126 1.02607e-05 3.49707e-22)
(0.0152672 1.25826e-05 6.62957e-22)
(0.0152323 1.48588e-05 -6.46622e-22)
(0.0151863 1.74998e-05 1.25066e-21)
(0.0151328 1.96416e-05 0)
(0.0150726 2.17697e-05 -1.16676e-21)
(0.0150037 2.36699e-05 -1.14345e-21)
(0.0149284 2.52694e-05 5.60579e-22)
(0.0148474 2.65987e-05 1.04864e-21)
(0.0147621 2.7635e-05 1.04338e-21)
(0.0146734 2.84052e-05 1.4358e-21)
(0.0145831 2.88635e-05 0)
(0.0144921 2.90674e-05 -4.58078e-22)
(0.0144016 2.89732e-05 -5.47456e-23)
(0.0143127 2.86954e-05 -3.77302e-22)
(0.0142259 2.81526e-05 5.20191e-23)
(0.0141425 2.74417e-05 -5.14686e-22)
(0.0140629 2.65486e-05 8.58061e-22)
(0.0139879 2.54949e-05 -3.96671e-22)
(0.0139178 2.43278e-05 4.86052e-23)
(0.0138529 2.30553e-05 3.38323e-22)
(0.0137936 2.17013e-05 7.20374e-22)
(0.0137401 2.02642e-05 4.79442e-23)
(0.0136924 1.87701e-05 -3.82077e-22)
(0.0136508 1.72494e-05 2.397e-23)
(0.0136152 1.5683e-05 -4.08641e-22)
(0.0135857 1.41247e-05 3.87568e-22)
(0.0135622 1.25554e-05 2.46059e-23)
(0.0135447 1.09964e-05 3.71633e-22)
(0.0135331 9.44881e-06 0)
(0.0135274 7.92306e-06 0)
(0.0135275 6.41977e-06 -1.31175e-23)
(0.0135331 4.94724e-06 -2.56302e-25)
(0.0135441 3.50238e-06 4.32351e-22)
(0.0135602 2.10784e-06 1.36684e-23)
(0.0135815 7.46425e-07 -2.25958e-22)
(0.0136077 -5.70507e-07 2.31186e-22)
(0.0136386 -1.85319e-06 0)
(0.0136738 -3.0736e-06 -1.13498e-22)
(0.0137134 -4.23987e-06 -7.66467e-24)
(0.013757 -5.36573e-06 -8.04159e-24)
(0.0138044 -6.42519e-06 8.04068e-24)
(0.0138555 -7.45303e-06 4.21757e-24)
(0.0139098 -8.41664e-06 -8.53497e-24)
(0.0139673 -9.33215e-06 -6.55735e-23)
(0.0140276 -1.01902e-05 -2.26141e-24)
(0.0140904 -1.0999e-05 2.26206e-24)
(0.0141555 -1.17522e-05 5.91198e-25)
(0.0142227 -1.24529e-05 -5.90977e-25)
(0.0142916 -1.31005e-05 0)
(0.014362 -1.37001e-05 -7.97885e-23)
(0.0144337 -1.42464e-05 0)
(0.0145063 -1.4745e-05 -8.30633e-23)
(0.0145795 -1.51922e-05 1.69338e-22)
(0.0146532 -1.5596e-05 0)
(0.014727 -1.5951e-05 1.75665e-22)
(0.0148007 -1.6264e-05 -1.12694e-23)
(0.014874 -1.65227e-05 -1.12655e-23)
(0.0149467 -1.67612e-05 3.69516e-22)
(0.0150184 -1.69416e-05 3.75327e-22)
(0.015089 -1.71015e-05 0)
(0.0151581 -1.72302e-05 -2.43273e-23)
(0.0152255 -1.73092e-05 4.40848e-22)
(0.015291 -1.73688e-05 -2.46532e-23)
(0.0153543 -1.73997e-05 1.25677e-21)
(0.0154152 -1.74121e-05 -1.01711e-22)
(0.0154735 -1.73885e-05 -7.71858e-22)
(0.015529 -1.73534e-05 -5.22491e-23)
(0.0155815 -1.72987e-05 5.22314e-23)
(0.015631 -1.72382e-05 0)
(0.0156774 -1.71646e-05 -8.00688e-22)
(0.0157204 -1.70871e-05 -9.68318e-22)
(0.0157601 -1.70063e-05 5.39656e-23)
(0.0157963 -1.69208e-05 0)
(0.0158291 -1.68242e-05 1.86308e-21)
(0.0158581 -1.67316e-05 -2.20147e-22)
(0.0158835 -1.66144e-05 -1.54725e-21)
(0.0159051 -1.65205e-05 -2.21677e-22)
(0.015923 -1.63513e-05 1.10933e-22)
(0.0159367 -1.61933e-05 1.11302e-22)
(0.0159466 -1.59781e-05 -1.89134e-21)
(0.0159522 -1.57326e-05 0)
(0.0159537 -1.54189e-05 1.66473e-21)
(0.0159508 -1.50256e-05 1.05123e-21)
(0.0159432 -1.45271e-05 -1.10164e-22)
(0.0159305 -1.39468e-05 -8.21934e-22)
(0.0159127 -1.32124e-05 8.16633e-22)
(0.0158891 -1.23627e-05 5.41597e-23)
(0.0158595 -1.12762e-05 -8.55092e-22)
(0.0158231 -1.00223e-05 2.53586e-21)
(0.0157807 -8.62973e-06 0)
(0.015732 -6.90503e-06 0)
(0.0156779 -5.18767e-06 8.09151e-22)
(0.0156206 -2.93364e-06 -7.88568e-22)
(0.0155593 -6.65587e-07 -6.14881e-24)
(0.0155034 1.05902e-06 7.21086e-28)
(0.0154606 1.41949e-06 -7.32913e-25)
(0.0172463 1.10118e-05 0)
(0.0171665 1.14422e-05 6.14461e-22)
(0.0171195 1.5173e-05 -2.34846e-24)
(0.0170628 1.8398e-05 5.73199e-22)
(0.0170161 2.13651e-05 2.20397e-21)
(0.0169595 2.47272e-05 -1.05884e-21)
(0.0168961 2.75716e-05 -1.03299e-21)
(0.0168265 3.02982e-05 9.87274e-22)
(0.0167491 3.27381e-05 9.54761e-22)
(0.0166661 3.47772e-05 2.82146e-23)
(0.0165783 3.6459e-05 -9.13811e-22)
(0.0164872 3.77432e-05 -8.53412e-22)
(0.0163937 3.8673e-05 -8.73689e-22)
(0.0162995 3.91915e-05 5.05701e-23)
(0.0162056 3.93645e-05 7.6897e-22)
(0.0161132 3.91578e-05 7.45441e-22)
(0.0160233 3.86834e-05 7.24159e-22)
(0.0159364 3.7877e-05 -4.35457e-23)
(0.0158538 3.68333e-05 4.35823e-23)
(0.0157757 3.55553e-05 -7.16347e-22)
(0.0157031 3.40637e-05 -6.20961e-22)
(0.0156361 3.24191e-05 0)
(0.0155751 3.06329e-05 0)
(0.0155202 2.87374e-05 -3.20399e-22)
(0.0154717 2.67341e-05 3.982e-23)
(0.0154298 2.46574e-05 3.1844e-22)
(0.0153944 2.25413e-05 -5.98374e-23)
(0.0153655 2.03711e-05 -6.20999e-22)
(0.0153432 1.82078e-05 -3.02603e-22)
(0.0153274 1.60335e-05 -3.66894e-22)
(0.015318 1.3873e-05 -6.18993e-22)
(0.0153149 1.17299e-05 -3.34626e-22)
(0.015318 9.61741e-06 -3.61548e-22)
(0.0153271 7.53885e-06 3.68473e-22)
(0.015342 5.50428e-06 -2.18836e-23)
(0.0153626 3.51096e-06 -5.29768e-22)
(0.0153886 1.58601e-06 -1.14015e-23)
(0.0154199 -2.88583e-07 1.88547e-22)
(0.0154562 -2.09971e-06 -3.73721e-22)
(0.0154973 -3.85814e-06 1.85368e-22)
(0.0155429 -5.532e-06 1.01202e-22)
(0.0155929 -7.13151e-06 -2.00797e-22)
(0.0156469 -8.66834e-06 -1.32823e-23)
(0.0157048 -1.01158e-05 6.72292e-24)
(0.0157663 -1.15117e-05 -1.11532e-22)
(0.015831 -1.28204e-05 1.14253e-22)
(0.0158988 -1.40585e-05 5.85119e-23)
(0.0159693 -1.52171e-05 0)
(0.0160422 -1.63038e-05 4.64655e-23)
(0.0161172 -1.7313e-05 -4.84518e-25)
(0.0161941 -1.82476e-05 -3.20678e-23)
(0.0162726 -1.91066e-05 0)
(0.0163524 -1.98973e-05 6.59009e-27)
(0.0164332 -2.06133e-05 0)
(0.0165146 -2.12611e-05 0)
(0.0165965 -2.18377e-05 -2.84671e-22)
(0.0166784 -2.23512e-05 -1.45077e-22)
(0.0167602 -2.2798e-05 -1.47806e-22)
(0.0168414 -2.31843e-05 -3.00938e-22)
(0.0169219 -2.34975e-05 -2.86907e-22)
(0.0170015 -2.3776e-05 -6.42077e-22)
(0.0170796 -2.39799e-05 -2.9654e-22)
(0.0171562 -2.41483e-05 -6.4251e-22)
(0.0172309 -2.42731e-05 -6.72737e-22)
(0.0173033 -2.43334e-05 -9.92926e-22)
(0.0173734 -2.43623e-05 -6.71107e-22)
(0.0174409 -2.43509e-05 -6.80054e-22)
(0.0175054 -2.43116e-05 4.32844e-23)
(0.0175668 -2.42257e-05 1.35026e-21)
(0.0176249 -2.4123e-05 7.04347e-22)
(0.0176795 -2.39952e-05 0)
(0.0177305 -2.38553e-05 1.48116e-21)
(0.0177779 -2.36978e-05 2.21881e-21)
(0.0178212 -2.35311e-05 -9.0912e-23)
(0.0178606 -2.33544e-05 -9.22588e-23)
(0.0178959 -2.31663e-05 -5.79426e-25)
(0.0179269 -2.29606e-05 -1.39734e-21)
(0.0179536 -2.27503e-05 0)
(0.0179757 -2.25089e-05 1.50495e-21)
(0.0179932 -2.2275e-05 9.45493e-23)
(0.0180062 -2.19584e-05 2.36425e-25)
(0.018014 -2.16283e-05 -1.89673e-22)
(0.0180171 -2.12279e-05 1.61402e-21)
(0.018015 -2.07709e-05 1.61391e-21)
(0.0180077 -2.02188e-05 -3.12955e-21)
(0.017995 -1.95546e-05 -9.44929e-23)
(0.0179766 -1.87529e-05 1.60331e-21)
(0.0179521 -1.78284e-05 -1.50193e-21)
(0.0179213 -1.67081e-05 0)
(0.0178839 -1.54233e-05 -2.30564e-23)
(0.0178394 -1.38614e-05 2.03262e-25)
(0.0177874 -1.20724e-05 -1.42921e-21)
(0.0177286 -1.01002e-05 0)
(0.017663 -7.75793e-06 1.41412e-21)
(0.0175918 -5.35999e-06 -1.07913e-23)
(0.0175174 -2.44148e-06 6.95299e-22)
(0.0174397 5.47548e-07 0)
(0.0173676 2.99787e-06 0)
(0.0173085 4.0975e-06 6.31117e-25)
(0.0187676 1.53543e-05 -1.34819e-22)
(0.0186755 1.67483e-05 6.96639e-26)
(0.0186154 2.11623e-05 1.02026e-21)
(0.018547 2.53359e-05 -1.97136e-21)
(0.0184882 2.90198e-05 -9.49269e-22)
(0.0184208 3.30996e-05 1.82695e-21)
(0.0183474 3.66498e-05 8.8143e-22)
(0.0182688 3.99584e-05 -1.69251e-21)
(0.0181836 4.29129e-05 1.65289e-21)
(0.0180938 4.53594e-05 -1.59061e-21)
(0.0180005 4.73533e-05 -2.31109e-23)
(0.017905 4.88383e-05 6.75917e-23)
(0.0178083 4.98731e-05 -4.4466e-23)
(0.017712 5.03927e-05 0)
(0.0176171 5.04706e-05 1.34381e-21)
(0.0175247 5.00855e-05 -6.7164e-22)
(0.0174358 4.93431e-05 -6.13336e-22)
(0.0173508 4.82018e-05 -3.68782e-23)
(0.017271 4.67506e-05 -1.09352e-21)
(0.0171966 4.50118e-05 -3.60937e-23)
(0.0171283 4.30062e-05 5.61238e-22)
(0.0170663 4.08067e-05 -5.53233e-22)
(0.0170109 3.8429e-05 0)
(0.0169622 3.59142e-05 0)
(0.0169205 3.32677e-05 0)
(0.0168857 3.05324e-05 0)
(0.016858 2.7745e-05 0)
(0.0168371 2.48976e-05 5.77869e-22)
(0.0168232 2.2056e-05 -3.41405e-23)
(0.016816 1.92061e-05 2.76867e-22)
(0.0168155 1.6376e-05 2.98054e-22)
(0.0168216 1.35719e-05 8.36094e-22)
(0.016834 1.08099e-05 2.89404e-22)
(0.0168526 8.09625e-06 -5.89529e-22)
(0.0168771 5.44281e-06 0)
(0.0169074 2.84792e-06 3.07091e-22)
(0.0169431 3.42101e-07 -3.13919e-22)
(0.0169841 -2.09252e-06 -3.21201e-22)
(0.0170302 -4.44151e-06 1.74855e-22)
(0.0170811 -6.71523e-06 -1.78875e-22)
(0.0171364 -8.87953e-06 -1.09197e-23)
(0.017196 -1.09457e-05 1.09516e-23)
(0.0172596 -1.2923e-05 1.81367e-22)
(0.0173268 -1.47854e-05 -5.88099e-24)
(0.0173976 -1.65718e-05 1.07204e-22)
(0.0174714 -1.82452e-05 -1.03685e-22)
(0.0175481 -1.98221e-05 0)
(0.0176272 -2.12941e-05 1.61973e-24)
(0.0177086 -2.26681e-05 -2.78491e-23)
(0.017792 -2.39399e-05 8.38728e-25)
(0.0178769 -2.51118e-05 3.35316e-27)
(0.0179631 -2.61828e-05 3.54693e-24)
(0.0180504 -2.71621e-05 5.74557e-23)
(0.0181383 -2.80426e-05 -3.62507e-24)
(0.0182266 -2.88317e-05 -7.55197e-24)
(0.018315 -2.95275e-05 1.29626e-22)
(0.0184031 -3.01378e-05 1.4017e-22)
(0.0184907 -3.06612e-05 -1.57091e-23)
(0.0185774 -3.11033e-05 2.74632e-22)
(0.018663 -3.14521e-05 2.46655e-22)
(0.0187472 -3.17486e-05 8.0236e-22)
(0.0188297 -3.19532e-05 0)
(0.0189102 -3.21049e-05 5.52513e-22)
(0.0189884 -3.21984e-05 5.61011e-22)
(0.0190639 -3.22121e-05 1.13857e-21)
(0.0191367 -3.21807e-05 5.77381e-22)
(0.0192064 -3.20964e-05 -5.85184e-22)
(0.0192727 -3.19745e-05 0)
(0.0193355 -3.1797e-05 -5.99596e-22)
(0.0193946 -3.15952e-05 6.05967e-22)
(0.0194498 -3.13614e-05 1.14744e-21)
(0.019501 -3.11073e-05 -2.39515e-21)
(0.0195479 -3.08282e-05 -2.49397e-21)
(0.0195904 -3.05316e-05 0)
(0.0196283 -3.02158e-05 -1.34616e-21)
(0.0196615 -2.98794e-05 7.94559e-23)
(0.0196899 -2.9517e-05 0)
(0.0197132 -2.91381e-05 1.29038e-21)
(0.0197314 -2.87199e-05 8.11773e-23)
(0.0197443 -2.82886e-05 2.69351e-25)
(0.0197519 -2.77676e-05 -8.14547e-23)
(0.0197537 -2.72023e-05 2.61563e-21)
(0.01975 -2.65526e-05 2.53643e-21)
(0.0197403 -2.58162e-05 -1.14559e-21)
(0.0197246 -2.4956e-05 1.22611e-21)
(0.0197027 -2.39493e-05 8.14594e-23)
(0.0196742 -2.27719e-05 -1.38237e-21)
(0.0196389 -2.14282e-05 1.29519e-21)
(0.0195965 -1.98491e-05 0)
(0.0195468 -1.80561e-05 2.55638e-21)
(0.0194893 -1.59512e-05 0)
(0.0194237 -1.3562e-05 0)
(0.0193507 -1.09468e-05 0)
(0.0192707 -7.93549e-06 -1.2115e-21)
(0.0191848 -4.80141e-06 -9.46953e-24)
(0.0190958 -1.18044e-06 9.15461e-24)
(0.0190036 2.58876e-06 -4.67017e-24)
(0.0189171 5.8379e-06 -5.73313e-22)
(0.0188433 7.78446e-06 -1.07568e-27)
(0.0200332 2.06156e-05 1.17052e-22)
(0.0199305 2.30729e-05 -4.58599e-22)
(0.0198588 2.81678e-05 -8.84608e-22)
(0.01978 3.32957e-05 1.70724e-21)
(0.0197103 3.76997e-05 -6.30787e-24)
(0.0196334 4.24764e-05 -1.5697e-21)
(0.0195516 4.67088e-05 1.51509e-21)
(0.0194657 5.05651e-05 1.46976e-21)
(0.0193746 5.39919e-05 -1.41319e-21)
(0.01928 5.67985e-05 -2.503e-25)
(0.0191832 5.9051e-05 0)
(0.0190854 6.0679e-05 -1.20947e-21)
(0.0189877 6.17561e-05 -3.82601e-23)
(0.0188915 6.2212e-05 -1.12468e-21)
(0.0187978 6.21267e-05 -1.15755e-21)
(0.0187075 6.14943e-05 -6.69696e-23)
(0.0186217 6.04121e-05 1.12353e-21)
(0.0185406 5.88647e-05 -1.02928e-21)
(0.0184655 5.69334e-05 1.00554e-21)
(0.0183965 5.46614e-05 -9.8545e-22)
(0.0183342 5.20698e-05 9.6874e-22)
(0.0182788 4.92437e-05 4.77713e-22)
(0.0182305 4.62037e-05 -9.74841e-22)
(0.0181894 4.29991e-05 2.10979e-25)
(0.0181556 3.96411e-05 2.93076e-23)
(0.0181291 3.618e-05 0)
(0.0181099 3.26558e-05 0)
(0.0180979 2.90685e-05 4.71199e-22)
(0.0180929 2.54873e-05 4.45318e-22)
(0.0180949 2.19035e-05 6.00867e-23)
(0.0181037 1.8348e-05 -3.02528e-23)