/*--------------------------------*- C++ -*----------------------------------*\
| =========                 |                                                 |
| \\      /  F ield         | OpenFOAM: The Open Source CFD Toolbox           |
|  \\    /   O peration     | Version:  2112                                  |
|   \\  /    A nd           | Website:  www.openfoam.com                      |
|    \\/     M anipulation  |                                                 |
\*---------------------------------------------------------------------------*/
FoamFile
{
    version     2.0;
    format      ascii;
    arch        "LSB;label=32;scalar=64";
    class       volScalarField;
    location    "1225";
    object      yPlus;
}
// * * * * * * * * * * * * * * * * * * * * * * * * * * * * * * * * * * * * * //

dimensions      [0 0 0 0 0 0 0];

internalField   uniform 0;

boundaryField
{
    bottomWall
    {
        type            calculated;
        value           nonuniform List<scalar> 
99
(
0.347722
0.369472
0.251004
0.205313
0.256649
0.187826
0.164136
0.132836
0.122208
0.109722
0.108821
0.109097
0.112624
0.113363
0.112463
0.108127
0.102865
0.097287
0.0915095
0.087059
0.0846436
0.101635
0.123284
0.136377
0.147399
0.155758
0.162916
0.168853
0.174102
0.178715
0.182895
0.186683
0.190157
0.193336
0.196256
0.19892
0.20134
0.203519
0.205457
0.207156
0.208614
0.209834
0.210816
0.211561
0.212068
0.212339
0.212375
0.212182
0.211765
0.211131
0.210283
0.209229
0.207971
0.206516
0.204868
0.203035
0.201026
0.19885
0.196514
0.194027
0.191396
0.188627
0.18573
0.182707
0.17957
0.176321
0.172974
0.169525
0.166005
0.162403
0.158809
0.155178
0.151727
0.14832
0.145468
0.142567
0.140687
0.134945
0.129076
0.128827
0.129672
0.130313
0.128598
0.122452
0.105522
0.0628343
0.0844009
0.14573
0.193682
0.241095
0.293968
0.362939
0.452424
0.547975
0.641961
0.666973
0.563563
0.410463
0.314029
)
;
    }
    defaultFaces
    {
        type            empty;
    }
    inlet
    {
        type            cyclic;
    }
    outlet
    {
        type            cyclic;
    }
    topWall
    {
        type            calculated;
        value           nonuniform List<scalar> 
99
(
0.787769
0.786128
0.786366
0.784319
0.78285
0.780128
0.777014
0.773414
0.769235
0.764656
0.759709
0.754434
0.748855
0.743126
0.737272
0.731376
0.725488
0.71962
0.713851
0.708207
0.702761
0.697495
0.69244
0.687636
0.683115
0.678845
0.674839
0.671098
0.667626
0.664448
0.661559
0.65896
0.656647
0.654616
0.65287
0.651383
0.650143
0.649165
0.648443
0.647947
0.647657
0.647607
0.647786
0.648194
0.648829
0.649651
0.650656
0.651833
0.653173
0.654669
0.656306
0.658085
0.660001
0.66203
0.664169
0.666408
0.668739
0.671156
0.673642
0.67622
0.678885
0.681613
0.684408
0.687218
0.690039
0.692897
0.695787
0.698691
0.701601
0.704536
0.707488
0.710458
0.713448
0.716452
0.719478
0.722529
0.725601
0.728703
0.731826
0.734991
0.738193
0.741412
0.744685
0.747968
0.751282
0.754618
0.757958
0.76128
0.764562
0.767795
0.770925
0.773916
0.776827
0.779419
0.781775
0.783873
0.78523
0.785661
0.787671
)
;
    }
}


// ************************************************************************* //
