/*--------------------------------*- C++ -*----------------------------------*\
| =========                 |                                                 |
| \\      /  F ield         | OpenFOAM: The Open Source CFD Toolbox           |
|  \\    /   O peration     | Version:  2112                                  |
|   \\  /    A nd           | Website:  www.openfoam.com                      |
|    \\/     M anipulation  |                                                 |
\*---------------------------------------------------------------------------*/
FoamFile
{
    version     2.0;
    format      ascii;
    arch        "LSB;label=32;scalar=64";
    class       volVectorField;
    location    "0";
    object      C;
}
// * * * * * * * * * * * * * * * * * * * * * * * * * * * * * * * * * * * * * //

dimensions      [0 1 0 0 0 0 0];

internalField   nonuniform List<vector> 
14751
(
(8.95455 3.034 0.05)
(8.86364 3.034 0.05)
(8.77273 3.034 0.05)
(8.68182 3.034 0.05)
(8.59091 3.034 0.05)
(8.5 3.034 0.05)
(8.40909 3.034 0.05)
(8.31818 3.034 0.05)
(8.22727 3.034 0.05)
(8.13636 3.034 0.05)
(8.04545 3.034 0.05)
(7.95455 3.034 0.05)
(7.86364 3.034 0.05)
(7.77273 3.034 0.05)
(7.68182 3.034 0.05)
(7.59091 3.034 0.05)
(7.5 3.034 0.05)
(7.40909 3.034 0.05)
(7.31818 3.034 0.05)
(7.22727 3.034 0.05)
(7.13636 3.034 0.05)
(7.04545 3.034 0.05)
(6.95455 3.034 0.05)
(6.86364 3.034 0.05)
(6.77273 3.034 0.05)
(6.68182 3.034 0.05)
(6.59091 3.034 0.05)
(6.5 3.034 0.05)
(6.40909 3.034 0.05)
(6.31818 3.034 0.05)
(6.22727 3.034 0.05)
(6.13636 3.034 0.05)
(6.04545 3.034 0.05)
(5.95455 3.034 0.05)
(5.86364 3.034 0.05)
(5.77273 3.034 0.05)
(5.68182 3.034 0.05)
(5.59091 3.034 0.05)
(5.5 3.034 0.05)
(5.40909 3.034 0.05)
(5.31818 3.034 0.05)
(5.22727 3.034 0.05)
(5.13636 3.034 0.05)
(5.04545 3.034 0.05)
(4.95455 3.034 0.05)
(4.86364 3.034 0.05)
(4.77273 3.034 0.05)
(4.68182 3.034 0.05)
(4.59091 3.034 0.05)
(4.5 3.034 0.05)
(4.40909 3.034 0.05)
(4.31818 3.034 0.05)
(4.22727 3.034 0.05)
(4.13636 3.034 0.05)
(4.04545 3.034 0.05)
(3.95455 3.034 0.05)
(3.86364 3.034 0.05)
(3.77273 3.034 0.05)
(3.68182 3.034 0.05)
(3.59091 3.034 0.05)
(3.5 3.034 0.05)
(3.40909 3.034 0.05)
(3.31818 3.034 0.05)
(3.22727 3.034 0.05)
(3.13636 3.034 0.05)
(3.04545 3.034 0.05)
(2.95455 3.034 0.05)
(2.86364 3.034 0.05)
(2.77273 3.034 0.05)
(2.68182 3.034 0.05)
(2.59091 3.034 0.05)
(2.5 3.034 0.05)
(2.40909 3.034 0.05)
(2.31818 3.034 0.05)
(2.22727 3.034 0.05)
(2.13636 3.034 0.05)
(2.04545 3.034 0.05)
(1.95455 3.034 0.05)
(1.86364 3.034 0.05)
(1.77273 3.034 0.05)
(1.68182 3.034 0.05)
(1.59091 3.034 0.05)
(1.5 3.034 0.05)
(1.40909 3.034 0.05)
(1.31818 3.034 0.05)
(1.22727 3.034 0.05)
(1.13636 3.034 0.05)
(1.04545 3.034 0.05)
(0.954546 3.034 0.05)
(0.863637 3.034 0.05)
(0.772728 3.034 0.05)
(0.681818 3.034 0.05)
(0.590909 3.034 0.05)
(0.5 3.034 0.05)
(0.409091 3.034 0.05)
(0.318182 3.034 0.05)
(0.227273 3.034 0.05)
(0.136363 3.034 0.05)
(0.0454543 3.034 0.05)
(8.95455 3.02991 0.05)
(8.86363 3.02991 0.05)
(8.77271 3.02991 0.05)
(8.68179 3.0299 0.05)
(8.59088 3.02989 0.05)
(8.49997 3.02988 0.05)
(8.40906 3.02987 0.05)
(8.31814 3.02986 0.05)
(8.22723 3.02985 0.05)
(8.13632 3.02984 0.05)
(8.0454 3.02983 0.05)
(7.95449 3.02982 0.05)
(7.86358 3.02981 0.05)
(7.77267 3.0298 0.05)
(7.68176 3.02979 0.05)
(7.59085 3.02978 0.05)
(7.49994 3.02977 0.05)
(7.40903 3.02977 0.05)
(7.31813 3.02976 0.05)
(7.22722 3.02975 0.05)
(7.13631 3.02974 0.05)
(7.04541 3.02973 0.05)
(6.9545 3.02973 0.05)
(6.86359 3.02972 0.05)
(6.77269 3.02971 0.05)
(6.68178 3.0297 0.05)
(6.59088 3.0297 0.05)
(6.49997 3.02969 0.05)
(6.40906 3.02969 0.05)
(6.31816 3.02968 0.05)
(6.22725 3.02968 0.05)
(6.13634 3.02967 0.05)
(6.04543 3.02967 0.05)
(5.95453 3.02967 0.05)
(5.86362 3.02966 0.05)
(5.77271 3.02966 0.05)
(5.6818 3.02966 0.05)
(5.5909 3.02966 0.05)
(5.49999 3.02965 0.05)
(5.40908 3.02965 0.05)
(5.31817 3.02965 0.05)
(5.22727 3.02965 0.05)
(5.13636 3.02965 0.05)
(5.04545 3.02965 0.05)
(4.95454 3.02965 0.05)
(4.86363 3.02965 0.05)
(4.77272 3.02965 0.05)
(4.68182 3.02965 0.05)
(4.59091 3.02965 0.05)
(4.5 3.02965 0.05)
(4.40909 3.02965 0.05)
(4.31818 3.02965 0.05)
(4.22728 3.02965 0.05)
(4.13637 3.02965 0.05)
(4.04546 3.02965 0.05)
(3.95455 3.02965 0.05)
(3.86364 3.02965 0.05)
(3.77273 3.02965 0.05)
(3.68183 3.02965 0.05)
(3.59092 3.02965 0.05)
(3.50001 3.02966 0.05)
(3.4091 3.02966 0.05)
(3.3182 3.02966 0.05)
(3.22729 3.02966 0.05)
(3.13638 3.02966 0.05)
(3.04547 3.02967 0.05)
(2.95457 3.02967 0.05)
(2.86366 3.02967 0.05)
(2.77275 3.02968 0.05)
(2.68184 3.02968 0.05)
(2.59094 3.02969 0.05)
(2.50003 3.02969 0.05)
(2.40912 3.0297 0.05)
(2.31822 3.0297 0.05)
(2.22731 3.02971 0.05)
(2.1364 3.02972 0.05)
(2.0455 3.02972 0.05)
(1.95459 3.02973 0.05)
(1.86369 3.02974 0.05)
(1.77278 3.02975 0.05)
(1.68187 3.02975 0.05)
(1.59097 3.02976 0.05)
(1.50006 3.02977 0.05)
(1.40915 3.02978 0.05)
(1.31824 3.02979 0.05)
(1.22733 3.0298 0.05)
(1.13642 3.02981 0.05)
(1.04551 3.02982 0.05)
(0.954596 3.02983 0.05)
(0.863684 3.02984 0.05)
(0.772772 3.02985 0.05)
(0.681859 3.02986 0.05)
(0.590945 3.02987 0.05)
(0.500031 3.02988 0.05)
(0.409117 3.02989 0.05)
(0.318204 3.0299 0.05)
(0.22729 3.0299 0.05)
(0.136375 3.02991 0.05)
(0.0454545 3.02991 0.05)
(8.95455 3.02564 0.05)
(8.86362 3.02564 0.05)
(8.77271 3.02562 0.05)
(8.68179 3.0256 0.05)
(8.59087 3.02557 0.05)
(8.49995 3.02553 0.05)
(8.40903 3.0255 0.05)
(8.31811 3.02546 0.05)
(8.22718 3.02542 0.05)
(8.13626 3.02538 0.05)
(8.04534 3.02534 0.05)
(7.95442 3.0253 0.05)
(7.8635 3.02527 0.05)
(7.77258 3.02523 0.05)
(7.68167 3.02519 0.05)
(7.59075 3.02516 0.05)
(7.49984 3.02512 0.05)
(7.40893 3.02509 0.05)
(7.31803 3.02505 0.05)
(7.22713 3.02502 0.05)
(7.13623 3.02499 0.05)
(7.04533 3.02496 0.05)
(6.95442 3.02493 0.05)
(6.86352 3.0249 0.05)
(6.77262 3.02488 0.05)
(6.68172 3.02485 0.05)
(6.59082 3.02483 0.05)
(6.49992 3.02481 0.05)
(6.40901 3.02479 0.05)
(6.31811 3.02477 0.05)
(6.22721 3.02475 0.05)
(6.1363 3.02474 0.05)
(6.0454 3.02472 0.05)
(5.9545 3.02471 0.05)
(5.86359 3.0247 0.05)
(5.77269 3.02469 0.05)
(5.68178 3.02468 0.05)
(5.59088 3.02467 0.05)
(5.49997 3.02466 0.05)
(5.40906 3.02465 0.05)
(5.31816 3.02465 0.05)
(5.22725 3.02464 0.05)
(5.13635 3.02464 0.05)
(5.04544 3.02463 0.05)
(4.95453 3.02463 0.05)
(4.86363 3.02462 0.05)
(4.77272 3.02462 0.05)
(4.68181 3.02462 0.05)
(4.59091 3.02462 0.05)
(4.5 3.02462 0.05)
(4.40909 3.02462 0.05)
(4.31819 3.02462 0.05)
(4.22728 3.02462 0.05)
(4.13637 3.02462 0.05)
(4.04547 3.02463 0.05)
(3.95456 3.02463 0.05)
(3.86365 3.02464 0.05)
(3.77275 3.02464 0.05)
(3.68184 3.02465 0.05)
(3.59094 3.02465 0.05)
(3.50003 3.02466 0.05)
(3.40912 3.02467 0.05)
(3.31822 3.02468 0.05)
(3.22731 3.02469 0.05)
(3.13641 3.0247 0.05)
(3.0455 3.02471 0.05)
(2.9546 3.02472 0.05)
(2.8637 3.02474 0.05)
(2.77279 3.02475 0.05)
(2.68189 3.02477 0.05)
(2.59099 3.02479 0.05)
(2.50008 3.02481 0.05)
(2.40918 3.02483 0.05)
(2.31828 3.02485 0.05)
(2.22738 3.02488 0.05)
(2.13648 3.0249 0.05)
(2.04557 3.02493 0.05)
(1.95467 3.02496 0.05)
(1.86377 3.02498 0.05)
(1.77287 3.02502 0.05)
(1.68197 3.02505 0.05)
(1.59107 3.02508 0.05)
(1.50016 3.02512 0.05)
(1.40925 3.02515 0.05)
(1.31833 3.02519 0.05)
(1.22742 3.02522 0.05)
(1.1365 3.02526 0.05)
(1.04558 3.0253 0.05)
(0.954662 3.02534 0.05)
(0.863742 3.02538 0.05)
(0.772821 3.02542 0.05)
(0.681897 3.02546 0.05)
(0.590972 3.02549 0.05)
(0.500048 3.02553 0.05)
(0.409126 3.02556 0.05)
(0.318212 3.02559 0.05)
(0.227297 3.02562 0.05)
(0.136381 3.02563 0.05)
(0.0454545 3.02564 0.05)
(8.95455 3.02118 0.05)
(8.86362 3.02117 0.05)
(8.77271 3.02114 0.05)
(8.68179 3.02109 0.05)
(8.59087 3.02103 0.05)
(8.49995 3.02096 0.05)
(8.40901 3.02088 0.05)
(8.31807 3.0208 0.05)
(8.22713 3.02072 0.05)
(8.13619 3.02064 0.05)
(8.04526 3.02055 0.05)
(7.95433 3.02047 0.05)
(7.8634 3.02039 0.05)
(7.77247 3.02031 0.05)
(7.68154 3.02023 0.05)
(7.59062 3.02015 0.05)
(7.4997 3.02008 0.05)
(7.40879 3.02001 0.05)
(7.31789 3.01994 0.05)
(7.227 3.01987 0.05)
(7.1361 3.0198 0.05)
(7.04521 3.01974 0.05)
(6.95432 3.01968 0.05)
(6.86342 3.01962 0.05)
(6.77253 3.01956 0.05)
(6.68163 3.01951 0.05)
(6.59074 3.01946 0.05)
(6.49984 3.01942 0.05)
(6.40895 3.01937 0.05)
(6.31805 3.01933 0.05)
(6.22715 3.0193 0.05)
(6.13625 3.01926 0.05)
(6.04535 3.01923 0.05)
(5.95445 3.0192 0.05)
(5.86355 3.01917 0.05)
(5.77265 3.01915 0.05)
(5.68175 3.01913 0.05)
(5.59085 3.01911 0.05)
(5.49994 3.01909 0.05)
(5.40904 3.01907 0.05)
(5.31814 3.01906 0.05)
(5.22723 3.01904 0.05)
(5.13633 3.01903 0.05)
(5.04543 3.01902 0.05)
(4.95452 3.01902 0.05)
(4.86362 3.01901 0.05)
(4.77271 3.01901 0.05)
(4.68181 3.019 0.05)
(4.5909 3.019 0.05)
(4.5 3.019 0.05)
(4.4091 3.019 0.05)
(4.31819 3.019 0.05)
(4.22729 3.01901 0.05)
(4.13638 3.01901 0.05)
(4.04548 3.01902 0.05)
(3.95457 3.01902 0.05)
(3.86367 3.01903 0.05)
(3.77277 3.01904 0.05)
(3.68186 3.01906 0.05)
(3.59096 3.01907 0.05)
(3.50006 3.01909 0.05)
(3.40915 3.01911 0.05)
(3.31825 3.01913 0.05)
(3.22735 3.01915 0.05)
(3.13645 3.01917 0.05)
(3.04555 3.0192 0.05)
(2.95465 3.01923 0.05)
(2.86375 3.01926 0.05)
(2.77285 3.01929 0.05)
(2.68195 3.01933 0.05)
(2.59105 3.01937 0.05)
(2.50016 3.01941 0.05)
(2.40926 3.01946 0.05)
(2.31836 3.01951 0.05)
(2.22747 3.01956 0.05)
(2.13658 3.01961 0.05)
(2.04568 3.01967 0.05)
(1.95479 3.01973 0.05)
(1.8639 3.01979 0.05)
(1.773 3.01986 0.05)
(1.68211 3.01993 0.05)
(1.59121 3.02 0.05)
(1.5003 3.02007 0.05)
(1.40939 3.02015 0.05)
(1.31846 3.02023 0.05)
(1.22754 3.0203 0.05)
(1.13661 3.02039 0.05)
(1.04568 3.02047 0.05)
(0.954743 3.02055 0.05)
(0.86381 3.02063 0.05)
(0.772875 3.02071 0.05)
(0.681936 3.02079 0.05)
(0.590994 3.02087 0.05)
(0.500056 3.02095 0.05)
(0.409124 3.02102 0.05)
(0.318208 3.02108 0.05)
(0.227297 3.02113 0.05)
(0.136383 3.02116 0.05)
(0.0454546 3.02117 0.05)
(8.95455 3.01652 0.05)
(8.86362 3.01651 0.05)
(8.77271 3.01646 0.05)
(8.6818 3.01638 0.05)
(8.59089 3.01627 0.05)
(8.49995 3.01615 0.05)
(8.409 3.01602 0.05)
(8.31803 3.01589 0.05)
(8.22707 3.01576 0.05)
(8.13612 3.01562 0.05)
(8.04517 3.01548 0.05)
(7.95422 3.01534 0.05)
(7.86327 3.01521 0.05)
(7.77232 3.01507 0.05)
(7.68138 3.01494 0.05)
(7.59045 3.01481 0.05)
(7.49953 3.01468 0.05)
(7.40862 3.01456 0.05)
(7.31772 3.01444 0.05)
(7.22683 3.01433 0.05)
(7.13594 3.01421 0.05)
(7.04506 3.01411 0.05)
(6.95418 3.014 0.05)
(6.8633 3.01391 0.05)
(6.77241 3.01381 0.05)
(6.68152 3.01373 0.05)
(6.59064 3.01364 0.05)
(6.49975 3.01356 0.05)
(6.40886 3.01349 0.05)
(6.31797 3.01342 0.05)
(6.22708 3.01336 0.05)
(6.13618 3.0133 0.05)
(6.04529 3.01325 0.05)
(5.9544 3.0132 0.05)
(5.8635 3.01315 0.05)
(5.7726 3.01311 0.05)
(5.68171 3.01307 0.05)
(5.59081 3.01303 0.05)
(5.49991 3.013 0.05)
(5.40901 3.01298 0.05)
(5.31811 3.01295 0.05)
(5.22721 3.01293 0.05)
(5.13631 3.01291 0.05)
(5.04541 3.01289 0.05)
(4.95451 3.01288 0.05)
(4.86361 3.01287 0.05)
(4.77271 3.01286 0.05)
(4.6818 3.01285 0.05)
(4.5909 3.01285 0.05)
(4.5 3.01285 0.05)
(4.4091 3.01285 0.05)
(4.3182 3.01285 0.05)
(4.22729 3.01286 0.05)
(4.13639 3.01287 0.05)
(4.04549 3.01288 0.05)
(3.95459 3.01289 0.05)
(3.86369 3.01291 0.05)
(3.77279 3.01293 0.05)
(3.68189 3.01295 0.05)
(3.59099 3.01297 0.05)
(3.50009 3.013 0.05)
(3.40919 3.01303 0.05)
(3.31829 3.01307 0.05)
(3.2274 3.0131 0.05)
(3.1365 3.01315 0.05)
(3.0456 3.01319 0.05)
(2.95471 3.01324 0.05)
(2.86382 3.0133 0.05)
(2.77292 3.01335 0.05)
(2.68203 3.01342 0.05)
(2.59114 3.01348 0.05)
(2.50025 3.01356 0.05)
(2.40936 3.01363 0.05)
(2.31847 3.01372 0.05)
(2.22759 3.0138 0.05)
(2.1367 3.0139 0.05)
(2.04582 3.01399 0.05)
(1.95494 3.01409 0.05)
(1.86405 3.0142 0.05)
(1.77317 3.01431 0.05)
(1.68228 3.01443 0.05)
(1.59138 3.01455 0.05)
(1.50048 3.01467 0.05)
(1.40956 3.0148 0.05)
(1.31862 3.01493 0.05)
(1.22768 3.01506 0.05)
(1.13674 3.0152 0.05)
(1.04579 3.01534 0.05)
(0.954839 3.01547 0.05)
(0.863889 3.01561 0.05)
(0.772935 3.01575 0.05)
(0.681975 3.01588 0.05)
(0.591012 3.01601 0.05)
(0.500056 3.01614 0.05)
(0.409113 3.01625 0.05)
(0.318195 3.01635 0.05)
(0.227291 3.01644 0.05)
(0.136384 3.01649 0.05)
(0.0454546 3.01651 0.05)
(8.95456 3.01166 0.05)
(8.86362 3.01164 0.05)
(8.77272 3.01157 0.05)
(8.68182 3.01145 0.05)
(8.59091 3.01129 0.05)
(8.49996 3.01112 0.05)
(8.40898 3.01093 0.05)
(8.318 3.01074 0.05)
(8.22701 3.01054 0.05)
(8.13604 3.01034 0.05)
(8.04506 3.01013 0.05)
(7.9541 3.00993 0.05)
(7.86313 3.00973 0.05)
(7.77216 3.00953 0.05)
(7.6812 3.00934 0.05)
(7.59025 3.00914 0.05)
(7.49932 3.00895 0.05)
(7.40841 3.00877 0.05)
(7.31751 3.00859 0.05)
(7.22663 3.00842 0.05)
(7.13576 3.00826 0.05)
(7.04489 3.0081 0.05)
(6.95402 3.00795 0.05)
(6.86314 3.0078 0.05)
(6.77227 3.00766 0.05)
(6.68139 3.00753 0.05)
(6.59052 3.00741 0.05)
(6.49964 3.00729 0.05)
(6.40875 3.00718 0.05)
(6.31787 3.00708 0.05)
(6.22699 3.00699 0.05)
(6.1361 3.0069 0.05)
(6.04522 3.00682 0.05)
(5.95433 3.00674 0.05)
(5.86344 3.00667 0.05)
(5.77255 3.00661 0.05)
(5.68166 3.00655 0.05)
(5.59076 3.0065 0.05)
(5.49987 3.00645 0.05)
(5.40898 3.00641 0.05)
(5.31808 3.00637 0.05)
(5.22718 3.00634 0.05)
(5.13629 3.00631 0.05)
(5.04539 3.00629 0.05)
(4.95449 3.00627 0.05)
(4.86359 3.00625 0.05)
(4.7727 3.00624 0.05)
(4.6818 3.00623 0.05)
(4.5909 3.00622 0.05)
(4.5 3.00622 0.05)
(4.4091 3.00622 0.05)
(4.3182 3.00623 0.05)
(4.2273 3.00624 0.05)
(4.1364 3.00625 0.05)
(4.04551 3.00627 0.05)
(3.95461 3.00629 0.05)
(3.86371 3.00631 0.05)
(3.77281 3.00634 0.05)
(3.68192 3.00637 0.05)
(3.59102 3.00641 0.05)
(3.50013 3.00645 0.05)
(3.40924 3.0065 0.05)
(3.31834 3.00655 0.05)
(3.22745 3.00661 0.05)
(3.13656 3.00667 0.05)
(3.04567 3.00674 0.05)
(2.95478 3.00681 0.05)
(2.8639 3.00689 0.05)
(2.77301 3.00698 0.05)
(2.68213 3.00707 0.05)
(2.59124 3.00717 0.05)
(2.50036 3.00728 0.05)
(2.40948 3.0074 0.05)
(2.31861 3.00752 0.05)
(2.22773 3.00765 0.05)
(2.13685 3.00779 0.05)
(2.04598 3.00793 0.05)
(1.95511 3.00808 0.05)
(1.86424 3.00824 0.05)
(1.77337 3.00841 0.05)
(1.68249 3.00858 0.05)
(1.59159 3.00876 0.05)
(1.50068 3.00894 0.05)
(1.40976 3.00913 0.05)
(1.31881 3.00932 0.05)
(1.22785 3.00952 0.05)
(1.13689 3.00972 0.05)
(1.04592 3.00992 0.05)
(0.954948 3.01012 0.05)
(0.863976 3.01032 0.05)
(0.773001 3.01052 0.05)
(0.682017 3.01072 0.05)
(0.591029 3.01091 0.05)
(0.500051 3.01109 0.05)
(0.409095 3.01126 0.05)
(0.318177 3.01141 0.05)
(0.22728 3.01153 0.05)
(0.136382 3.01162 0.05)
(0.0454546 3.01165 0.05)
(8.95456 3.00658 0.05)
(8.86362 3.00656 0.05)
(8.77274 3.00645 0.05)
(8.68185 3.00629 0.05)
(8.59093 3.00608 0.05)
(8.49997 3.00585 0.05)
(8.40897 3.0056 0.05)
(8.31796 3.00533 0.05)
(8.22695 3.00506 0.05)
(8.13595 3.00479 0.05)
(8.04495 3.00451 0.05)
(7.95396 3.00424 0.05)
(7.86296 3.00396 0.05)
(7.77197 3.00369 0.05)
(7.68099 3.00343 0.05)
(7.59003 3.00316 0.05)
(7.49909 3.0029 0.05)
(7.40817 3.00265 0.05)
(7.31728 3.00241 0.05)
(7.22641 3.00218 0.05)
(7.13555 3.00195 0.05)
(7.04469 3.00173 0.05)
(6.95383 3.00152 0.05)
(6.86297 3.00132 0.05)
(6.77211 3.00113 0.05)
(6.68124 3.00096 0.05)
(6.59038 3.00079 0.05)
(6.49951 3.00063 0.05)
(6.40864 3.00048 0.05)
(6.31776 3.00034 0.05)
(6.22689 3.00021 0.05)
(6.13601 3.00009 0.05)
(6.04513 2.99997 0.05)
(5.95425 2.99987 0.05)
(5.86337 2.99978 0.05)
(5.77248 2.99969 0.05)
(5.6816 2.99961 0.05)
(5.59071 2.99954 0.05)
(5.49982 2.99947 0.05)
(5.40893 2.99941 0.05)
(5.31804 2.99936 0.05)
(5.22715 2.99932 0.05)
(5.13626 2.99928 0.05)
(5.04537 2.99924 0.05)
(4.95447 2.99922 0.05)
(4.86358 2.99919 0.05)
(4.77268 2.99917 0.05)
(4.68179 2.99916 0.05)
(4.59089 2.99915 0.05)
(4.5 2.99915 0.05)
(4.4091 2.99915 0.05)
(4.31821 2.99916 0.05)
(4.22731 2.99917 0.05)
(4.13642 2.99919 0.05)
(4.04553 2.99921 0.05)
(3.95463 2.99924 0.05)
(3.86374 2.99927 0.05)
(3.77285 2.99931 0.05)
(3.68195 2.99936 0.05)
(3.59106 2.99941 0.05)
(3.50017 2.99947 0.05)
(3.40929 2.99953 0.05)
(3.3184 2.9996 0.05)
(3.22751 2.99968 0.05)
(3.13663 2.99977 0.05)
(3.04575 2.99986 0.05)
(2.95487 2.99996 0.05)
(2.86399 3.00008 0.05)
(2.77311 3.0002 0.05)
(2.68223 3.00033 0.05)
(2.59136 3.00046 0.05)
(2.50049 3.00061 0.05)
(2.40962 3.00077 0.05)
(2.31875 3.00094 0.05)
(2.22789 3.00112 0.05)
(2.13703 3.00131 0.05)
(2.04617 3.0015 0.05)
(1.95531 3.00171 0.05)
(1.86445 3.00193 0.05)
(1.77359 3.00216 0.05)
(1.68272 3.00239 0.05)
(1.59183 3.00264 0.05)
(1.50092 3.00289 0.05)
(1.40998 3.00314 0.05)
(1.31902 3.00341 0.05)
(1.22804 3.00368 0.05)
(1.13705 3.00395 0.05)
(1.04606 3.00422 0.05)
(0.955068 3.0045 0.05)
(0.864073 3.00477 0.05)
(0.773072 3.00504 0.05)
(0.682061 3.00531 0.05)
(0.591044 3.00557 0.05)
(0.500043 3.00582 0.05)
(0.409073 3.00604 0.05)
(0.318153 3.00625 0.05)
(0.227267 3.00641 0.05)
(0.136379 3.00653 0.05)
(0.0454546 3.00657 0.05)
(8.95455 3.00128 0.05)
(8.86363 3.00125 0.05)
(8.77275 3.00112 0.05)
(8.68188 3.00091 0.05)
(8.59096 3.00064 0.05)
(8.49999 3.00034 0.05)
(8.40897 3.00001 0.05)
(8.31792 2.99968 0.05)
(8.22688 2.99933 0.05)
(8.13585 2.99898 0.05)
(8.04482 2.99862 0.05)
(7.95381 2.99827 0.05)
(7.86279 2.99791 0.05)
(7.77177 2.99756 0.05)
(7.68076 2.99721 0.05)
(7.58978 2.99687 0.05)
(7.49883 2.99654 0.05)
(7.40791 2.99622 0.05)
(7.31702 2.9959 0.05)
(7.22616 2.9956 0.05)
(7.13531 2.9953 0.05)
(7.04447 2.99502 0.05)
(6.95362 2.99475 0.05)
(6.86278 2.99449 0.05)
(6.77193 2.99425 0.05)
(6.68108 2.99401 0.05)
(6.59022 2.99379 0.05)
(6.49936 2.99359 0.05)
(6.4085 2.99339 0.05)
(6.31764 2.99321 0.05)
(6.22678 2.99304 0.05)
(6.13591 2.99288 0.05)
(6.04504 2.99274 0.05)
(5.95417 2.9926 0.05)
(5.86329 2.99248 0.05)
(5.77241 2.99236 0.05)
(5.68154 2.99226 0.05)
(5.59066 2.99217 0.05)
(5.49977 2.99208 0.05)
(5.40889 2.99201 0.05)
(5.318 2.99194 0.05)
(5.22712 2.99188 0.05)
(5.13623 2.99183 0.05)
(5.04534 2.99178 0.05)
(4.95445 2.99175 0.05)
(4.86356 2.99172 0.05)
(4.77267 2.99169 0.05)
(4.68178 2.99168 0.05)
(4.59089 2.99167 0.05)
(4.5 2.99166 0.05)
(4.40911 2.99166 0.05)
(4.31822 2.99167 0.05)
(4.22733 2.99169 0.05)
(4.13644 2.99171 0.05)
(4.04555 2.99174 0.05)
(3.95466 2.99178 0.05)
(3.86377 2.99182 0.05)
(3.77288 2.99187 0.05)
(3.68199 2.99193 0.05)
(3.59111 2.992 0.05)
(3.50023 2.99208 0.05)
(3.40934 2.99216 0.05)
(3.31846 2.99225 0.05)
(3.22758 2.99235 0.05)
(3.13671 2.99247 0.05)
(3.04583 2.99259 0.05)
(2.95496 2.99272 0.05)
(2.86409 2.99287 0.05)
(2.77322 2.99303 0.05)
(2.68236 2.99319 0.05)
(2.59149 2.99337 0.05)
(2.50063 2.99357 0.05)
(2.40978 2.99377 0.05)
(2.31892 2.99399 0.05)
(2.22807 2.99422 0.05)
(2.13722 2.99447 0.05)
(2.04637 2.99473 0.05)
(1.95553 2.995 0.05)
(1.86469 2.99528 0.05)
(1.77384 2.99557 0.05)
(1.68298 2.99588 0.05)
(1.59209 2.99619 0.05)
(1.50118 2.99652 0.05)
(1.41023 2.99685 0.05)
(1.31925 2.99719 0.05)
(1.22825 2.99754 0.05)
(1.13724 2.99789 0.05)
(1.04622 2.99825 0.05)
(0.955199 2.9986 0.05)
(0.864178 2.99895 0.05)
(0.773149 2.9993 0.05)
(0.682107 2.99965 0.05)
(0.591059 2.99998 0.05)
(0.500032 3.0003 0.05)
(0.409046 3.00059 0.05)
(0.318126 3.00085 0.05)
(0.227251 3.00107 0.05)
(0.136375 3.00121 0.05)
(0.0454546 3.00127 0.05)
(8.95455 2.99575 0.05)
(8.86363 2.99571 0.05)
(8.77277 2.99554 0.05)
(8.68191 2.99529 0.05)
(8.591 2.99495 0.05)
(8.50001 2.99458 0.05)
(8.40896 2.99418 0.05)
(8.31788 2.99376 0.05)
(8.2268 2.99333 0.05)
(8.13574 2.9929 0.05)
(8.04469 2.99245 0.05)
(7.95364 2.99201 0.05)
(7.86259 2.99157 0.05)
(7.77155 2.99113 0.05)
(7.68052 2.9907 0.05)
(7.58952 2.99028 0.05)
(7.49855 2.98986 0.05)
(7.40763 2.98946 0.05)
(7.31675 2.98907 0.05)
(7.22589 2.98869 0.05)
(7.13505 2.98832 0.05)
(7.04423 2.98797 0.05)
(6.9534 2.98763 0.05)
(6.86257 2.98731 0.05)
(6.77173 2.987 0.05)
(6.68089 2.98671 0.05)
(6.59005 2.98644 0.05)
(6.49921 2.98618 0.05)
(6.40836 2.98593 0.05)
(6.31751 2.98571 0.05)
(6.22665 2.98549 0.05)
(6.1358 2.9853 0.05)
(6.04494 2.98511 0.05)
(5.95407 2.98495 0.05)
(5.86321 2.98479 0.05)
(5.77234 2.98465 0.05)
(5.68147 2.98452 0.05)
(5.59059 2.9844 0.05)
(5.49972 2.9843 0.05)
(5.40884 2.9842 0.05)
(5.31796 2.98412 0.05)
(5.22708 2.98404 0.05)
(5.1362 2.98398 0.05)
(5.04531 2.98392 0.05)
(4.95443 2.98387 0.05)
(4.86354 2.98384 0.05)
(4.77266 2.98381 0.05)
(4.68177 2.98379 0.05)
(4.59089 2.98377 0.05)
(4.5 2.98377 0.05)
(4.40911 2.98377 0.05)
(4.31823 2.98378 0.05)
(4.22734 2.9838 0.05)
(4.13645 2.98383 0.05)
(4.04557 2.98387 0.05)
(3.95468 2.98392 0.05)
(3.8638 2.98397 0.05)
(3.77292 2.98403 0.05)
(3.68204 2.98411 0.05)
(3.59116 2.98419 0.05)
(3.50028 2.98429 0.05)
(3.40941 2.98439 0.05)
(3.31853 2.98451 0.05)
(3.22766 2.98464 0.05)
(3.13679 2.98478 0.05)
(3.04592 2.98493 0.05)
(2.95506 2.9851 0.05)
(2.8642 2.98528 0.05)
(2.77334 2.98548 0.05)
(2.68249 2.98569 0.05)
(2.59164 2.98591 0.05)
(2.50079 2.98615 0.05)
(2.40994 2.98641 0.05)
(2.3191 2.98669 0.05)
(2.22826 2.98697 0.05)
(2.13743 2.98728 0.05)
(2.0466 2.9876 0.05)
(1.95577 2.98794 0.05)
(1.86494 2.98829 0.05)
(1.77411 2.98866 0.05)
(1.68326 2.98904 0.05)
(1.59238 2.98943 0.05)
(1.50146 2.98984 0.05)
(1.4105 2.99025 0.05)
(1.31951 2.99068 0.05)
(1.22848 2.99111 0.05)
(1.13744 2.99155 0.05)
(1.04639 2.99199 0.05)
(0.95534 2.99243 0.05)
(0.86429 2.99287 0.05)
(0.77323 2.9933 0.05)
(0.682155 2.99373 0.05)
(0.591074 2.99414 0.05)
(0.500018 2.99454 0.05)
(0.409016 2.9949 0.05)
(0.318095 2.99522 0.05)
(0.227232 2.99549 0.05)
(0.13637 2.99567 0.05)
(0.0454546 2.99573 0.05)
(8.95455 2.98998 0.05)
(8.86363 2.98993 0.05)
(8.77279 2.98973 0.05)
(8.68194 2.98942 0.05)
(8.59103 2.98902 0.05)
(8.50003 2.98857 0.05)
(8.40895 2.98809 0.05)
(8.31784 2.98758 0.05)
(8.22672 2.98707 0.05)
(8.13563 2.98654 0.05)
(8.04455 2.98601 0.05)
(7.95347 2.98547 0.05)
(7.86239 2.98494 0.05)
(7.77131 2.98441 0.05)
(7.68025 2.98389 0.05)
(7.58923 2.98338 0.05)
(7.49825 2.98287 0.05)
(7.40733 2.98238 0.05)
(7.31645 2.98191 0.05)
(7.2256 2.98145 0.05)
(7.13478 2.981 0.05)
(7.04397 2.98058 0.05)
(6.95316 2.98017 0.05)
(6.86234 2.97978 0.05)
(6.77152 2.9794 0.05)
(6.6807 2.97905 0.05)
(6.58987 2.97872 0.05)
(6.49904 2.9784 0.05)
(6.40821 2.97811 0.05)
(6.31737 2.97783 0.05)
(6.22652 2.97758 0.05)
(6.13568 2.97734 0.05)
(6.04483 2.97711 0.05)
(5.95397 2.97691 0.05)
(5.86311 2.97672 0.05)
(5.77225 2.97655 0.05)
(5.68139 2.97639 0.05)
(5.59053 2.97625 0.05)
(5.49966 2.97612 0.05)
(5.40879 2.976 0.05)
(5.31791 2.9759 0.05)
(5.22704 2.97581 0.05)
(5.13616 2.97573 0.05)
(5.04528 2.97566 0.05)
(4.95441 2.9756 0.05)
(4.86353 2.97556 0.05)
(4.77264 2.97552 0.05)
(4.68176 2.9755 0.05)
(4.59088 2.97548 0.05)
(4.5 2.97548 0.05)
(4.40912 2.97548 0.05)
(4.31824 2.9755 0.05)
(4.22735 2.97552 0.05)
(4.13647 2.97556 0.05)
(4.04559 2.9756 0.05)
(3.95471 2.97566 0.05)
(3.86384 2.97572 0.05)
(3.77296 2.9758 0.05)
(3.68208 2.97589 0.05)
(3.59121 2.97599 0.05)
(3.50034 2.97611 0.05)
(3.40947 2.97624 0.05)
(3.31861 2.97638 0.05)
(3.22774 2.97653 0.05)
(3.13688 2.97671 0.05)
(3.04602 2.97689 0.05)
(2.95517 2.9771 0.05)
(2.86432 2.97732 0.05)
(2.77347 2.97755 0.05)
(2.68263 2.97781 0.05)
(2.59179 2.97808 0.05)
(2.50095 2.97838 0.05)
(2.41012 2.97869 0.05)
(2.3193 2.97902 0.05)
(2.22847 2.97937 0.05)
(2.13765 2.97974 0.05)
(2.04684 2.98013 0.05)
(1.95603 2.98054 0.05)
(1.86522 2.98097 0.05)
(1.7744 2.98141 0.05)
(1.68356 2.98187 0.05)
(1.59268 2.98235 0.05)
(1.50176 2.98284 0.05)
(1.41079 2.98334 0.05)
(1.31978 2.98386 0.05)
(1.22872 2.98438 0.05)
(1.13765 2.98491 0.05)
(1.04657 2.98544 0.05)
(0.95549 2.98597 0.05)
(0.864409 2.98651 0.05)
(0.773317 2.98703 0.05)
(0.682206 2.98755 0.05)
(0.59109 2.98805 0.05)
(0.500003 2.98852 0.05)
(0.408983 2.98896 0.05)
(0.318062 2.98935 0.05)
(0.227212 2.98966 0.05)
(0.136364 2.98988 0.05)
(0.0454546 2.98996 0.05)
(8.95455 2.98397 0.05)
(8.86364 2.9839 0.05)
(8.77281 2.98366 0.05)
(8.68198 2.98329 0.05)
(8.59107 2.98282 0.05)
(8.50005 2.9823 0.05)
(8.40894 2.98173 0.05)
(8.31779 2.98113 0.05)
(8.22664 2.98052 0.05)
(8.13551 2.9799 0.05)
(8.04439 2.97927 0.05)
(7.95328 2.97864 0.05)
(7.86217 2.97801 0.05)
(7.77106 2.97738 0.05)
(7.67997 2.97677 0.05)
(7.58893 2.97616 0.05)
(7.49794 2.97556 0.05)
(7.407 2.97498 0.05)
(7.31613 2.97442 0.05)
(7.22529 2.97388 0.05)
(7.13449 2.97335 0.05)
(7.0437 2.97284 0.05)
(6.9529 2.97236 0.05)
(6.8621 2.97189 0.05)
(6.7713 2.97145 0.05)
(6.68049 2.97103 0.05)
(6.58968 2.97064 0.05)
(6.49886 2.97027 0.05)
(6.40804 2.96992 0.05)
(6.31721 2.96959 0.05)
(6.22638 2.96928 0.05)
(6.13555 2.969 0.05)
(6.04471 2.96874 0.05)
(5.95386 2.96849 0.05)
(5.86302 2.96827 0.05)
(5.77217 2.96806 0.05)
(5.68131 2.96788 0.05)
(5.59045 2.96771 0.05)
(5.49959 2.96755 0.05)
(5.40873 2.96741 0.05)
(5.31786 2.96729 0.05)
(5.22699 2.96718 0.05)
(5.13612 2.96709 0.05)
(5.04525 2.96701 0.05)
(4.95438 2.96694 0.05)
(4.8635 2.96689 0.05)
(4.77263 2.96684 0.05)
(4.68175 2.96681 0.05)
(4.59088 2.9668 0.05)
(4.5 2.96679 0.05)
(4.40912 2.96679 0.05)
(4.31825 2.96681 0.05)
(4.22737 2.96684 0.05)
(4.13649 2.96688 0.05)
(4.04562 2.96694 0.05)
(3.95475 2.967 0.05)
(3.86387 2.96708 0.05)
(3.773 2.96717 0.05)
(3.68213 2.96728 0.05)
(3.59127 2.9674 0.05)
(3.5004 2.96754 0.05)
(3.40954 2.96769 0.05)
(3.31869 2.96786 0.05)
(3.22783 2.96805 0.05)
(3.13698 2.96825 0.05)
(3.04613 2.96847 0.05)
(2.95529 2.96871 0.05)
(2.86445 2.96898 0.05)
(2.77361 2.96926 0.05)
(2.68278 2.96956 0.05)
(2.59195 2.96989 0.05)
(2.50113 2.97024 0.05)
(2.41031 2.97061 0.05)
(2.3195 2.971 0.05)
(2.22869 2.97142 0.05)
(2.13789 2.97186 0.05)
(2.04709 2.97232 0.05)
(1.9563 2.9728 0.05)
(1.86551 2.97331 0.05)
(1.77471 2.97383 0.05)
(1.68388 2.97438 0.05)
(1.59301 2.97494 0.05)
(1.50208 2.97553 0.05)
(1.4111 2.97612 0.05)
(1.32006 2.97673 0.05)
(1.22898 2.97735 0.05)
(1.13787 2.97797 0.05)
(1.04676 2.9786 0.05)
(0.95565 2.97923 0.05)
(0.864535 2.97986 0.05)
(0.773408 2.98048 0.05)
(0.68226 2.98109 0.05)
(0.591105 2.98168 0.05)
(0.499987 2.98224 0.05)
(0.408948 2.98276 0.05)
(0.318026 2.98322 0.05)
(0.227191 2.98359 0.05)
(0.136358 2.98385 0.05)
(0.0454546 2.98394 0.05)
(8.95455 2.97769 0.05)
(8.86365 2.97761 0.05)
(8.77283 2.97733 0.05)
(8.68202 2.9769 0.05)
(8.59112 2.97636 0.05)
(8.50008 2.97575 0.05)
(8.40894 2.9751 0.05)
(8.31774 2.97441 0.05)
(8.22655 2.9737 0.05)
(8.13538 2.97297 0.05)
(8.04423 2.97224 0.05)
(7.95309 2.97151 0.05)
(7.86194 2.97078 0.05)
(7.7708 2.97005 0.05)
(7.67968 2.96933 0.05)
(7.58861 2.96862 0.05)
(7.4976 2.96793 0.05)
(7.40666 2.96725 0.05)
(7.31579 2.9666 0.05)
(7.22497 2.96596 0.05)
(7.13418 2.96535 0.05)
(7.04341 2.96476 0.05)
(6.95263 2.9642 0.05)
(6.86185 2.96366 0.05)
(6.77106 2.96314 0.05)
(6.68027 2.96265 0.05)
(6.58948 2.96219 0.05)
(6.49867 2.96176 0.05)
(6.40787 2.96135 0.05)
(6.31705 2.96097 0.05)
(6.22624 2.96061 0.05)
(6.13541 2.96028 0.05)
(6.04458 2.95997 0.05)
(5.95375 2.95969 0.05)
(5.86291 2.95943 0.05)
(5.77207 2.95919 0.05)
(5.68123 2.95897 0.05)
(5.59038 2.95877 0.05)
(5.49952 2.95859 0.05)
(5.40867 2.95843 0.05)
(5.31781 2.95829 0.05)
(5.22695 2.95816 0.05)
(5.13608 2.95805 0.05)
(5.04522 2.95796 0.05)
(4.95435 2.95788 0.05)
(4.86348 2.95782 0.05)
(4.77261 2.95777 0.05)
(4.68174 2.95773 0.05)
(4.59087 2.95771 0.05)
(4.5 2.9577 0.05)
(4.40913 2.95771 0.05)
(4.31826 2.95773 0.05)
(4.22738 2.95776 0.05)
(4.13651 2.95781 0.05)
(4.04565 2.95787 0.05)
(3.95478 2.95795 0.05)
(3.86391 2.95804 0.05)
(3.77305 2.95815 0.05)
(3.68219 2.95828 0.05)
(3.59133 2.95842 0.05)
(3.50047 2.95858 0.05)
(3.40962 2.95876 0.05)
(3.31877 2.95895 0.05)
(3.22792 2.95917 0.05)
(3.13708 2.95941 0.05)
(3.04624 2.95967 0.05)
(2.95541 2.95995 0.05)
(2.86458 2.96025 0.05)
(2.77376 2.96058 0.05)
(2.68294 2.96094 0.05)
(2.59213 2.96132 0.05)
(2.50132 2.96172 0.05)
(2.41052 2.96215 0.05)
(2.31972 2.96261 0.05)
(2.22893 2.9631 0.05)
(2.13814 2.96361 0.05)
(2.04736 2.96415 0.05)
(1.95659 2.96471 0.05)
(1.86581 2.9653 0.05)
(1.77503 2.96591 0.05)
(1.68421 2.96655 0.05)
(1.59335 2.96721 0.05)
(1.50242 2.96789 0.05)
(1.41143 2.96858 0.05)
(1.32036 2.96929 0.05)
(1.22925 2.97001 0.05)
(1.13811 2.97073 0.05)
(1.04696 2.97147 0.05)
(0.955818 2.9722 0.05)
(0.864668 2.97293 0.05)
(0.773504 2.97365 0.05)
(0.682316 2.97436 0.05)
(0.591121 2.97505 0.05)
(0.499969 2.9757 0.05)
(0.408911 2.9763 0.05)
(0.317989 2.97683 0.05)
(0.227168 2.97726 0.05)
(0.136352 2.97756 0.05)
(0.0454546 2.97767 0.05)
(8.95454 2.97115 0.05)
(8.86365 2.97106 0.05)
(8.77286 2.97073 0.05)
(8.68206 2.97024 0.05)
(8.59116 2.96962 0.05)
(8.5001 2.96893 0.05)
(8.40893 2.96818 0.05)
(8.31769 2.96739 0.05)
(8.22646 2.96657 0.05)
(8.13525 2.96575 0.05)
(8.04406 2.96491 0.05)
(7.95288 2.96407 0.05)
(7.8617 2.96323 0.05)
(7.77052 2.96239 0.05)
(7.67936 2.96157 0.05)
(7.58827 2.96076 0.05)
(7.49725 2.95996 0.05)
(7.40631 2.95919 0.05)
(7.31544 2.95843 0.05)
(7.22463 2.95771 0.05)
(7.13385 2.957 0.05)
(7.0431 2.95632 0.05)
(6.95234 2.95567 0.05)
(6.86158 2.95505 0.05)
(6.77082 2.95446 0.05)
(6.68004 2.9539 0.05)
(6.58926 2.95337 0.05)
(6.49848 2.95288 0.05)
(6.40768 2.95241 0.05)
(6.31689 2.95197 0.05)
(6.22608 2.95156 0.05)
(6.13527 2.95118 0.05)
(6.04445 2.95082 0.05)
(5.95363 2.9505 0.05)
(5.86281 2.9502 0.05)
(5.77197 2.94992 0.05)
(5.68114 2.94967 0.05)
(5.5903 2.94944 0.05)
(5.49945 2.94924 0.05)
(5.4086 2.94905 0.05)
(5.31775 2.94889 0.05)
(5.2269 2.94874 0.05)
(5.13604 2.94861 0.05)
(5.04518 2.94851 0.05)
(4.95432 2.94841 0.05)
(4.86346 2.94834 0.05)
(4.7726 2.94828 0.05)
(4.68173 2.94824 0.05)
(4.59086 2.94822 0.05)
(4.5 2.94821 0.05)
(4.40913 2.94822 0.05)
(4.31827 2.94824 0.05)
(4.2274 2.94828 0.05)
(4.13654 2.94833 0.05)
(4.04567 2.94841 0.05)
(3.95481 2.9485 0.05)
(3.86395 2.9486 0.05)
(3.7731 2.94873 0.05)
(3.68224 2.94887 0.05)
(3.59139 2.94903 0.05)
(3.50054 2.94922 0.05)
(3.4097 2.94942 0.05)
(3.31886 2.94965 0.05)
(3.22802 2.9499 0.05)
(3.13719 2.95017 0.05)
(3.04636 2.95047 0.05)
(2.95554 2.95079 0.05)
(2.86472 2.95114 0.05)
(2.77391 2.95152 0.05)
(2.68311 2.95193 0.05)
(2.59231 2.95237 0.05)
(2.50152 2.95283 0.05)
(2.41073 2.95333 0.05)
(2.31995 2.95386 0.05)
(2.22918 2.95442 0.05)
(2.13841 2.955 0.05)
(2.04765 2.95562 0.05)
(1.95689 2.95627 0.05)
(1.86614 2.95695 0.05)
(1.77537 2.95765 0.05)
(1.68457 2.95838 0.05)
(1.59371 2.95913 0.05)
(1.50278 2.95991 0.05)
(1.41177 2.96071 0.05)
(1.32068 2.96152 0.05)
(1.22954 2.96235 0.05)
(1.13836 2.96318 0.05)
(1.04718 2.96402 0.05)
(0.955994 2.96486 0.05)
(0.864808 2.9657 0.05)
(0.773605 2.96653 0.05)
(0.682375 2.96734 0.05)
(0.591138 2.96812 0.05)
(0.49995 2.96887 0.05)