/*--------------------------------*- C++ -*----------------------------------*\
| =========                 |                                                 |
| \\      /  F ield         | OpenFOAM: The Open Source CFD Toolbox           |
|  \\    /   O peration     | Version:  2112                                  |
|   \\  /    A nd           | Website:  www.openfoam.com                      |
|    \\/     M anipulation  |                                                 |
\*---------------------------------------------------------------------------*/
FoamFile
{
    version     2.0;
    format      ascii;
    arch        "LSB;label=32;scalar=64";
    class       volScalarField;
    location    "0";
    object      Cx;
}
// * * * * * * * * * * * * * * * * * * * * * * * * * * * * * * * * * * * * * //

dimensions      [0 1 0 0 0 0 0];

internalField   nonuniform List<scalar> 
14751
(
8.95455
8.86364
8.77273
8.68182
8.59091
8.5
8.40909
8.31818
8.22727
8.13636
8.04545
7.95455
7.86364
7.77273
7.68182
7.59091
7.5
7.40909
7.31818
7.22727
7.13636
7.04545
6.95455
6.86364
6.77273
6.68182
6.59091
6.5
6.40909
6.31818
6.22727
6.13636
6.04545
5.95455
5.86364
5.77273
5.68182
5.59091
5.5
5.40909
5.31818
5.22727
5.13636
5.04545
4.95455
4.86364
4.77273
4.68182
4.59091
4.5
4.40909
4.31818
4.22727
4.13636
4.04545
3.95455
3.86364
3.77273
3.68182
3.59091
3.5
3.40909
3.31818
3.22727
3.13636
3.04545
2.95455
2.86364
2.77273
2.68182
2.59091
2.5
2.40909
2.31818
2.22727
2.13636
2.04545
1.95455
1.86364
1.77273
1.68182
1.59091
1.5
1.40909
1.31818
1.22727
1.13636
1.04545
0.954546
0.863637
0.772728
0.681818
0.590909
0.5
0.409091
0.318182
0.227273
0.136363
0.0454543
8.95455
8.86363
8.77271
8.68179
8.59088
8.49997
8.40906
8.31814
8.22723
8.13632
8.0454
7.95449
7.86358
7.77267
7.68176
7.59085
7.49994
7.40903
7.31813
7.22722
7.13631
7.04541
6.9545
6.86359
6.77269
6.68178
6.59088
6.49997
6.40906
6.31816
6.22725
6.13634
6.04543
5.95453
5.86362
5.77271
5.6818
5.5909
5.49999
5.40908
5.31817
5.22727
5.13636
5.04545
4.95454
4.86363
4.77272
4.68182
4.59091
4.5
4.40909
4.31818
4.22728
4.13637
4.04546
3.95455
3.86364
3.77273
3.68183
3.59092
3.50001
3.4091
3.3182
3.22729
3.13638
3.04547
2.95457
2.86366
2.77275
2.68184
2.59094
2.50003
2.40912
2.31822
2.22731
2.1364
2.0455
1.95459
1.86369
1.77278
1.68187
1.59097
1.50006
1.40915
1.31824
1.22733
1.13642
1.04551
0.954596
0.863684
0.772772
0.681859
0.590945
0.500031
0.409117
0.318204
0.22729
0.136375
0.0454545
8.95455
8.86362
8.77271
8.68179
8.59087
8.49995
8.40903
8.31811
8.22718
8.13626
8.04534
7.95442
7.8635
7.77258
7.68167
7.59075
7.49984
7.40893
7.31803
7.22713
7.13623
7.04533
6.95442
6.86352
6.77262
6.68172
6.59082
6.49992
6.40901
6.31811
6.22721
6.1363
6.0454
5.9545
5.86359
5.77269
5.68178
5.59088
5.49997
5.40906
5.31816
5.22725
5.13635
5.04544
4.95453
4.86363
4.77272
4.68181
4.59091
4.5
4.40909
4.31819
4.22728
4.13637
4.04547
3.95456
3.86365
3.77275
3.68184
3.59094
3.50003
3.40912
3.31822
3.22731
3.13641
3.0455
2.9546
2.8637
2.77279
2.68189
2.59099
2.50008
2.40918
2.31828
2.22738
2.13648
2.04557
1.95467
1.86377
1.77287
1.68197
1.59107
1.50016
1.40925
1.31833
1.22742
1.1365
1.04558
0.954662
0.863742
0.772821
0.681897
0.590972
0.500048
0.409126
0.318212
0.227297
0.136381
0.0454545
8.95455
8.86362
8.77271
8.68179
8.59087
8.49995
8.40901
8.31807
8.22713
8.13619
8.04526
7.95433
7.8634
7.77247
7.68154
7.59062
7.4997
7.40879
7.31789
7.227
7.1361
7.04521
6.95432
6.86342
6.77253
6.68163
6.59074
6.49984
6.40895
6.31805
6.22715
6.13625
6.04535
5.95445
5.86355
5.77265
5.68175
5.59085
5.49994
5.40904
5.31814
5.22723
5.13633
5.04543
4.95452
4.86362
4.77271
4.68181
4.5909
4.5
4.4091
4.31819
4.22729
4.13638
4.04548
3.95457
3.86367
3.77277
3.68186
3.59096
3.50006
3.40915
3.31825
3.22735
3.13645
3.04555
2.95465
2.86375
2.77285
2.68195
2.59105
2.50016
2.40926
2.31836
2.22747
2.13658
2.04568
1.95479
1.8639
1.773
1.68211
1.59121
1.5003
1.40939
1.31846
1.22754
1.13661
1.04568
0.954743
0.86381
0.772875
0.681936
0.590994
0.500056
0.409124
0.318208
0.227297
0.136383
0.0454546
8.95455
8.86362
8.77271
8.6818
8.59089
8.49995
8.409
8.31803
8.22707
8.13612
8.04517
7.95422
7.86327
7.77232
7.68138
7.59045
7.49953
7.40862
7.31772
7.22683
7.13594
7.04506
6.95418
6.8633
6.77241
6.68152
6.59064
6.49975
6.40886
6.31797
6.22708
6.13618
6.04529
5.9544
5.8635
5.7726
5.68171
5.59081
5.49991
5.40901
5.31811
5.22721
5.13631
5.04541
4.95451
4.86361
4.77271
4.6818
4.5909
4.5
4.4091
4.3182
4.22729
4.13639
4.04549
3.95459
3.86369
3.77279
3.68189
3.59099
3.50009
3.40919
3.31829
3.2274
3.1365
3.0456
2.95471
2.86382
2.77292
2.68203
2.59114
2.50025
2.40936
2.31847
2.22759
2.1367
2.04582
1.95494
1.86405
1.77317
1.68228
1.59138
1.50048
1.40956
1.31862
1.22768
1.13674
1.04579
0.954839
0.863889
0.772935
0.681975
0.591012
0.500056
0.409113
0.318195
0.227291
0.136384
0.0454546
8.95456
8.86362
8.77272
8.68182
8.59091
8.49996
8.40898
8.318
8.22701
8.13604
8.04506
7.9541
7.86313
7.77216
7.6812
7.59025
7.49932
7.40841
7.31751
7.22663
7.13576
7.04489
6.95402
6.86314
6.77227
6.68139
6.59052
6.49964
6.40875
6.31787
6.22699
6.1361
6.04522
5.95433
5.86344
5.77255
5.68166
5.59076
5.49987
5.40898
5.31808
5.22718
5.13629
5.04539
4.95449
4.86359
4.7727
4.6818
4.5909
4.5
4.4091
4.3182
4.2273
4.1364
4.04551
3.95461
3.86371
3.77281
3.68192
3.59102
3.50013
3.40924
3.31834
3.22745
3.13656
3.04567
2.95478
2.8639
2.77301
2.68213
2.59124
2.50036
2.40948
2.31861
2.22773
2.13685
2.04598
1.95511
1.86424
1.77337
1.68249
1.59159
1.50068
1.40976
1.31881
1.22785
1.13689
1.04592
0.954948
0.863976
0.773001
0.682017
0.591029
0.500051
0.409095
0.318177
0.22728
0.136382
0.0454546
8.95456
8.86362
8.77274
8.68185
8.59093
8.49997
8.40897
8.31796
8.22695
8.13595
8.04495
7.95396
7.86296
7.77197
7.68099
7.59003
7.49909
7.40817
7.31728
7.22641
7.13555
7.04469
6.95383
6.86297
6.77211
6.68124
6.59038
6.49951
6.40864
6.31776
6.22689
6.13601
6.04513
5.95425
5.86337
5.77248
5.6816
5.59071
5.49982
5.40893
5.31804
5.22715
5.13626
5.04537
4.95447
4.86358
4.77268
4.68179
4.59089
4.5
4.4091
4.31821
4.22731
4.13642
4.04553
3.95463
3.86374
3.77285
3.68195
3.59106
3.50017
3.40929
3.3184
3.22751
3.13663
3.04575
2.95487
2.86399
2.77311
2.68223
2.59136
2.50049
2.40962
2.31875
2.22789
2.13703
2.04617
1.95531
1.86445
1.77359
1.68272
1.59183
1.50092
1.40998
1.31902
1.22804
1.13705
1.04606
0.955068
0.864073
0.773072
0.682061
0.591044
0.500043
0.409073
0.318153
0.227267
0.136379
0.0454546
8.95455
8.86363
8.77275
8.68188
8.59096
8.49999
8.40897
8.31792
8.22688
8.13585
8.04482
7.95381
7.86279
7.77177
7.68076
7.58978
7.49883
7.40791
7.31702
7.22616
7.13531
7.04447
6.95362
6.86278
6.77193
6.68108
6.59022
6.49936
6.4085
6.31764
6.22678
6.13591
6.04504
5.95417
5.86329
5.77241
5.68154
5.59066
5.49977
5.40889
5.318
5.22712
5.13623
5.04534
4.95445
4.86356
4.77267
4.68178
4.59089
4.5
4.40911
4.31822
4.22733
4.13644
4.04555
3.95466
3.86377
3.77288
3.68199
3.59111
3.50023
3.40934
3.31846
3.22758
3.13671
3.04583
2.95496
2.86409
2.77322
2.68236
2.59149
2.50063
2.40978
2.31892
2.22807
2.13722
2.04637
1.95553
1.86469
1.77384
1.68298
1.59209
1.50118
1.41023
1.31925
1.22825
1.13724
1.04622
0.955199
0.864178
0.773149
0.682107
0.591059
0.500032
0.409046
0.318126
0.227251
0.136375
0.0454546
8.95455
8.86363
8.77277
8.68191
8.591
8.50001
8.40896
8.31788
8.2268
8.13574
8.04469
7.95364
7.86259
7.77155
7.68052
7.58952
7.49855
7.40763
7.31675
7.22589
7.13505
7.04423
6.9534
6.86257
6.77173
6.68089
6.59005
6.49921
6.40836
6.31751
6.22665
6.1358
6.04494
5.95407
5.86321
5.77234
5.68147
5.59059
5.49972
5.40884
5.31796
5.22708
5.1362
5.04531
4.95443
4.86354
4.77266
4.68177
4.59089
4.5
4.40911
4.31823
4.22734
4.13645
4.04557
3.95468
3.8638
3.77292
3.68204
3.59116
3.50028
3.40941
3.31853
3.22766
3.13679
3.04592
2.95506
2.8642
2.77334
2.68249
2.59164
2.50079
2.40994
2.3191
2.22826
2.13743
2.0466
1.95577
1.86494
1.77411
1.68326
1.59238
1.50146
1.4105
1.31951
1.22848
1.13744
1.04639
0.95534
0.86429
0.77323
0.682155
0.591074
0.500018
0.409016
0.318095
0.227232
0.13637
0.0454546
8.95455
8.86363
8.77279
8.68194
8.59103
8.50003
8.40895
8.31784
8.22672
8.13563
8.04455
7.95347
7.86239
7.77131
7.68025
7.58923
7.49825
7.40733
7.31645
7.2256
7.13478
7.04397
6.95316
6.86234
6.77152
6.6807
6.58987
6.49904
6.40821
6.31737
6.22652
6.13568
6.04483
5.95397
5.86311
5.77225
5.68139
5.59053
5.49966
5.40879
5.31791
5.22704
5.13616
5.04528
4.95441
4.86353
4.77264
4.68176
4.59088
4.5
4.40912
4.31824
4.22735
4.13647
4.04559
3.95471
3.86384
3.77296
3.68208
3.59121
3.50034
3.40947
3.31861
3.22774
3.13688
3.04602
2.95517
2.86432
2.77347
2.68263
2.59179
2.50095
2.41012
2.3193
2.22847
2.13765
2.04684
1.95603
1.86522
1.7744
1.68356
1.59268
1.50176
1.41079
1.31978
1.22872
1.13765
1.04657
0.95549
0.864409
0.773317
0.682206
0.59109
0.500003
0.408983
0.318062
0.227212
0.136364
0.0454546
8.95455
8.86364
8.77281
8.68198
8.59107
8.50005
8.40894
8.31779
8.22664
8.13551
8.04439
7.95328
7.86217
7.77106
7.67997
7.58893
7.49794
7.407
7.31613
7.22529
7.13449
7.0437
6.9529
6.8621
6.7713
6.68049
6.58968
6.49886
6.40804
6.31721
6.22638
6.13555
6.04471
5.95386
5.86302
5.77217
5.68131
5.59045
5.49959
5.40873
5.31786
5.22699
5.13612
5.04525
4.95438
4.8635
4.77263
4.68175
4.59088
4.5
4.40912
4.31825
4.22737
4.13649
4.04562
3.95475
3.86387
3.773
3.68213
3.59127
3.5004
3.40954
3.31869
3.22783
3.13698
3.04613
2.95529
2.86445
2.77361
2.68278
2.59195
2.50113
2.41031
2.3195
2.22869
2.13789
2.04709
1.9563
1.86551
1.77471
1.68388
1.59301
1.50208
1.4111
1.32006
1.22898
1.13787
1.04676
0.95565
0.864535
0.773408
0.68226
0.591105
0.499987
0.408948
0.318026
0.227191
0.136358
0.0454546
8.95455
8.86365
8.77283
8.68202
8.59112
8.50008
8.40894
8.31774
8.22655
8.13538
8.04423
7.95309
7.86194
7.7708
7.67968
7.58861
7.4976
7.40666
7.31579
7.22497
7.13418
7.04341
6.95263
6.86185
6.77106
6.68027
6.58948
6.49867
6.40787
6.31705
6.22624
6.13541
6.04458
5.95375
5.86291
5.77207
5.68123
5.59038
5.49952
5.40867
5.31781
5.22695
5.13608
5.04522
4.95435
4.86348
4.77261
4.68174
4.59087
4.5
4.40913
4.31826
4.22738
4.13651
4.04565
3.95478
3.86391
3.77305
3.68219
3.59133
3.50047
3.40962
3.31877
3.22792
3.13708
3.04624
2.95541
2.86458
2.77376
2.68294
2.59213
2.50132
2.41052
2.31972
2.22893
2.13814
2.04736
1.95659
1.86581
1.77503
1.68421
1.59335
1.50242
1.41143
1.32036
1.22925
1.13811
1.04696
0.955818
0.864668
0.773504
0.682316
0.591121
0.499969
0.408911
0.317989
0.227168
0.136352
0.0454546
8.95454
8.86365
8.77286
8.68206
8.59116
8.5001
8.40893
8.31769
8.22646
8.13525
8.04406
7.95288
7.8617
7.77052
7.67936
7.58827
7.49725
7.40631
7.31544
7.22463
7.13385
7.0431
6.95234
6.86158
6.77082
6.68004
6.58926
6.49848
6.40768
6.31689
6.22608
6.13527
6.04445
5.95363
5.86281
5.77197
5.68114
5.5903
5.49945
5.4086
5.31775
5.2269
5.13604
5.04518
4.95432
4.86346
4.7726
4.68173
4.59086
4.5
4.40913
4.31827
4.2274
4.13654
4.04567
3.95481
3.86395
3.7731
3.68224
3.59139
3.50054
3.4097
3.31886
3.22802
3.13719
3.04636
2.95554
2.86472
2.77391
2.68311
2.59231
2.50152
2.41073
2.31995
2.22918
2.13841
2.04765
1.95689
1.86614
1.77537
1.68457
1.59371
1.50278
1.41177
1.32068
1.22954
1.13836
1.04718
0.955994
0.864808
0.773605
0.682375
0.591138
0.49995
0.408872
0.317949
0.227144
0.136345
0.0454546
8.95454
8.86366
8.77288
8.68211
8.59121
8.50013
8.40892
8.31764
8.22636
8.13512
8.04389
7.95267
7.86144
7.77022
7.67904
7.58791
7.49688
7.40593
7.31507
7.22427
7.13351
7.04278
6.95204
6.8613
6.77055
6.6798
6.58904
6.49827
6.40749
6.31671
6.22592
6.13512
6.04432
5.95351
5.86269
5.77187
5.68104
5.59021
5.49938
5.40854
5.31769
5.22685
5.136
5.04515
4.95429
4.86343
4.77258
4.68172
4.59086
4.5
4.40914
4.31828
4.22742
4.13656
4.04571
3.95485
3.864
3.77315
3.6823
3.59146
3.50062
3.40978
3.31895
3.22812
3.1373
3.04649
2.95568
2.86487
2.77408
2.68328
2.5925
2.50172
2.41095
2.32019
2.22944
2.13869
2.04795
1.95721
1.86648
1.77573
1.68494
1.59409
1.50315
1.41213
1.32102
1.22984
1.13862
1.0474
0.956179
0.864954
0.773711
0.682437
0.591155
0.499931
0.408831
0.317907
0.227119
0.136338
0.0454546
8.95454
8.86367
8.77291
8.68215
8.59126
8.50016
8.40891
8.31759
8.22626
8.13497
8.0437
7.95244
7.86118
7.76992
7.6787
7.58754
7.49649
7.40554
7.31468
7.22389
7.13316
7.04245
6.95173
6.86101
6.77028
6.67955
6.5888
6.49805
6.40729
6.31652
6.22575
6.13496
6.04417
5.95338
5.86257
5.77176
5.68095
5.59012
5.4993
5.40847
5.31763
5.22679
5.13595
5.04511
4.95426
4.86341
4.77256
4.68171
4.59085
4.5
4.40914
4.31829
4.22744
4.13659
4.04574
3.95489
3.86404
3.7732
3.68236
3.59153
3.5007
3.40987
3.31905
3.22823
3.13742
3.04662
2.95582
2.86503
2.77425
2.68347
2.5927
2.50194
2.41119
2.32044
2.22971
2.13898
2.04826
1.95754
1.86683
1.77611
1.68533
1.59448
1.50355
1.41251
1.32137
1.23015
1.1389
1.04763
0.956373
0.865107
0.773821
0.682501
0.591173
0.49991
0.408788
0.317864
0.227092
0.13633
0.0454546
8.95454
8.86368
8.77294
8.6822
8.59131
8.50019
8.4089
8.31753
8.22616
8.13482
8.04351
7.95221
7.8609
7.7696
7.67834
7.58716
7.49608
7.40513
7.31427
7.2235
7.13279
7.0421
6.9514
6.8607
6.77
6.67928
6.58856
6.49782
6.40708
6.31633
6.22557
6.1348
6.04402
5.95324
5.86245
5.77165
5.68084
5.59003
5.49922
5.40839
5.31757
5.22674
5.1359
5.04507
4.95423
4.86338
4.77254
4.68169
4.59085
4.5
4.40915
4.3183
4.22746
4.13661
4.04577
3.95493
3.86409
3.77326
3.68243
3.5916
3.50078
3.40996
3.31915
3.22834
3.13754
3.04675
2.95597
2.86519
2.77442
2.68366
2.59291
2.50217
2.41143
2.32071
2.22999
2.13928
2.04858
1.95789
1.86721
1.7765
1.68574
1.5949
1.50395
1.4129
1.32173
1.23048
1.13918
1.04788
0.956575
0.865267
0.773936
0.682569
0.591192
0.499888
0.408743
0.317818
0.227065
0.136322
0.0454546
8.95454
8.86369
8.77296
8.68225
8.59136
8.50022
8.40889
8.31747
8.22605
8.13466
8.04331
7.95196
7.86061
7.76926
7.67797
7.58675
7.49566
7.4047
7.31385
7.22309
7.1324
7.04173
6.95106
6.86039
6.7697
6.679
6.5883
6.49758
6.40686
6.31613
6.22538
6.13463
6.04387
5.9531
5.86232
5.77153
5.68074
5.58994
5.49913
5.40832
5.3175
5.22668
5.13585
5.04502
4.95419
4.86335
4.77252
4.68168
4.59084
4.5
4.40916
4.31832
4.22748
4.13664
4.0458
3.95497
3.86414
3.77332
3.68249
3.59167
3.50086
3.41006
3.31925
3.22846
3.13767
3.0469
2.95612
2.86536
2.77461
2.68386
2.59313
2.5024
2.41169
2.32098
2.23029
2.1396
2.04892
1.95826
1.86759
1.77691
1.68616
1.59533
1.50438
1.41331
1.32211
1.23082
1.13948
1.04813
0.956786
0.865434
0.774057
0.682639
0.591212
0.499866
0.408696
0.317771
0.227036
0.136314
0.0454546
8.95454
8.8637
8.773
8.6823
8.59141
8.50025
8.40888
8.31741
8.22593
8.1345
8.0431
7.9517
7.86031
7.76892
7.67758
7.58633
7.49522
7.40425
7.31341
7.22267
7.13199
7.04135
6.95071
6.86005
6.76939
6.67872
6.58803
6.49734
6.40663
6.31591
6.22519
6.13445
6.0437
5.95295
5.86218
5.77141
5.68063
5.58984
5.49904
5.40824
5.31743
5.22662
5.1358
5.04498
4.95415
4.86333
4.7725
4.68166
4.59083
4.5
4.40916
4.31833
4.2275
4.13667
4.04584
3.95502
3.86419
3.77338
3.68256
3.59175
3.50095
3.41015
3.31937
3.22858
3.13781
3.04704
2.95629
2.86554
2.7748
2.68407
2.59336
2.50265
2.41195
2.32127
2.2306
2.13993
2.04928
1.95864
1.868
1.77733
1.6866
1.59578
1.50483
1.41373
1.32251
1.23118
1.1398
1.0484
0.957006
0.865608
0.774182
0.682712
0.591233
0.499843
0.408647
0.317722
0.227006
0.136305
0.0454546
8.95454
8.8637
8.77303
8.68235
8.59147
8.50028
8.40887
8.31735
8.22581
8.13433
8.04288
7.95144
7.85999
7.76855
7.67717
7.5859
7.49476
7.40379
7.31295
7.22222
7.13157
7.04096
6.95034
6.85971
6.76907
6.67842
6.58775
6.49708
6.40639
6.3157
6.22499
6.13427
6.04353
5.95279
5.86204
5.77128
5.68051
5.58973
5.49895
5.40816
5.31736
5.22655
5.13575
5.04493
4.95412
4.8633
4.77247
4.68165
4.59082
4.5
4.40917
4.31835
4.22752
4.1367
4.04588
3.95506
3.86425
3.77344
3.68263
3.59184
3.50104
3.41026
3.31948
3.22871
3.13795
3.0472
2.95645
2.86572
2.775
2.68429
2.59359
2.50291
2.41223
2.32157
2.23092
2.14028
2.04965
1.95903
1.86841
1.77777
1.68706
1.59624
1.50529
1.41418
1.32292
1.23155
1.14012
1.04867
0.957235
0.865789
0.774313
0.682788
0.591254
0.499818
0.408597
0.317671
0.226975
0.136296
0.0454546
8.95454
8.86371
8.77306
8.68241
8.59153
8.50032
8.40886
8.31728
8.22569
8.13415
8.04265
7.95116
7.85966
7.76818
7.67675
7.58544
7.49429
7.4033
7.31247
7.22176
7.13114
7.04054
6.94995
6.85935
6.76873
6.67811
6.58747
6.49681
6.40615
6.31547
6.22478
6.13407
6.04336
5.95263
5.86189
5.77115
5.68039
5.58963
5.49885
5.40807
5.31728
5.22649
5.13569
5.04488
4.95408
4.86326
4.77245
4.68163
4.59082
4.5
4.40918
4.31836
4.22754
4.13673
4.04592
3.95511
3.8643
3.7735
3.68271
3.59192
3.50114
3.41036
3.3196
3.22884
3.13809
3.04736
2.95663
2.86591
2.77521
2.68452
2.59384
2.50317
2.41252
2.32188
2.23125
2.14063
2.05003
1.95944
1.86885
1.77823
1.68754
1.59673
1.50577
1.41464
1.32335
1.23194
1.14046
1.04896
0.957474
0.865978
0.774449
0.682868
0.591277
0.499794
0.408545
0.317618
0.226943
0.136286
0.0454546
8.95454
8.86372
8.77309
8.68246
8.59159
8.50035
8.40885
8.31721
8.22556
8.13397
8.04241
7.95087
7.85932
7.76778
7.67631
7.58497
7.49379
7.4028
7.31198
7.22128
7.13068
7.04012
6.94955
6.85898
6.76839
6.67778
6.58717
6.49653
6.40589
6.31523
6.22456
6.13387
6.04318
5.95246
5.86174
5.77101
5.68027
5.58951
5.49875
5.40798
5.3172
5.22642
5.13563
5.04483
4.95404
4.86323
4.77243
4.68162
4.59081
4.5
4.40919
4.31838
4.22757
4.13676
4.04596
3.95516
3.86436
3.77357
3.68279
3.59201
3.50124
3.41048
3.31972
3.22898
3.13825
3.04752
2.95681
2.86611
2.77543
2.68475
2.59409
2.50345
2.41282
2.3222
2.2316
2.14101
2.05043
1.95986
1.8693
1.77871
1.68804
1.59723
1.50627
1.41512
1.3238
1.23234
1.14081
1.04926
0.957723
0.866174
0.77459
0.68295
0.5913
0.499768
0.40849
0.317564
0.226909
0.136277
0.0454546
8.95454
8.86373
8.77313
8.68252
8.59165
8.50039
8.40884
8.31714
8.22542
8.13377
8.04217
7.95057
7.85897
7.76738
7.67586
7.58447
7.49328
7.40228
7.31146
7.22079
7.13021
7.03967
6.94914
6.85859
6.76802
6.67745
6.58685
6.49625
6.40562
6.31499
6.22433
6.13367
6.04299
5.95229
5.86159
5.77087
5.68014
5.5894
5.49865
5.40789
5.31712
5.22635
5.13557
5.04478
4.95399
4.8632
4.7724
4.6816
4.5908
4.5
4.40919
4.31839
4.22759
4.13679
4.046
3.95521
3.86442
3.77364
3.68287
3.5921
3.50134
3.41059
3.31985
3.22912
3.1384
3.04769
2.957
2.86632
2.77565
2.685
2.59436
2.50374
2.41313
2.32253
2.23196
2.14139
2.05084
1.96031
1.86977
1.77921
1.68855
1.59776
1.50679
1.41562
1.32426
1.23276
1.14118
1.04957
0.957981
0.866379
0.774738
0.683036
0.591325
0.499741
0.408434
0.317507
0.226874
0.136267
0.0454546
8.95455
8.86374
8.77316
8.68258
8.59171
8.50043
8.40883
8.31706
8.22528
8.13357
8.04191
7.95026
7.8586
7.76695
7.67538
7.58396
7.49274
7.40174
7.31093
7.22027
7.12972
7.03921
6.94871
6.85819
6.76765
6.6771
6.58653
6.49595
6.40535
6.31473
6.2241
6.13345
6.04279
5.95211
5.86142
5.77072
5.68
5.58928
5.49854
5.40779
5.31704
5.22628
5.13551
5.04473
4.95395
4.86316
4.77237
4.68158
4.59079
4.5
4.4092
4.31841
4.22762
4.13683
4.04604
3.95526
3.86448
3.77371
3.68295
3.5922
3.50145
3.41071
3.31998
3.22927
3.13856
3.04787
2.9572
2.86653
2.77588
2.68525
2.59463
2.50403
2.41345
2.32288
2.23233
2.14179
2.05127
1.96076
1.87026
1.77972
1.68909
1.5983
1.50733
1.41614
1.32474
1.23319
1.14156
1.0499
0.958249
0.866591
0.77489
0.683125
0.59135
0.499713
0.408376
0.317448
0.226838
0.136256
0.0454545
8.95455
8.86375
8.7732
8.68265
8.59178
8.50047
8.40881
8.31698
8.22514
8.13337
8.04164
7.94993
7.85821
7.76651
7.67489
7.58343
7.49219
7.40118
7.31037
7.21974
7.12921
7.03874
6.94826
6.85777
6.76726
6.67674
6.5862
6.49564
6.40506
6.31447
6.22386
6.13323
6.04258
5.95193
5.86125
5.77056
5.67986
5.58915
5.49843
5.40769
5.31695
5.2262
5.13544
5.04467
4.9539
4.86313
4.77235
4.68156
4.59078
4.5
4.40921
4.31843
4.22764
4.13686
4.04609
3.95532
3.86455
3.77379
3.68304
3.59229
3.50156
3.41084
3.32012
3.22942
3.13873
3.04806
2.9574
2.86675
2.77613
2.68551
2.59492
2.50434
2.41378
2.32324
2.23272
2.14221
2.05172
1.96124
1.87077
1.78026
1.68964
1.59887
1.50789
1.41668
1.32524
1.23364
1.14195
1.05024
0.958528
0.866811
0.775049
0.683218
0.591377
0.499685
0.408315
0.317387
0.226801
0.136245
0.0454545
8.95455
8.86377
8.77324
8.68271
8.59185
8.50051
8.4088
8.3169
8.22499
8.13315
8.04137
7.9496
7.85782
7.76605
7.67438
7.58288
7.49161
7.4006
7.3098
7.21918
7.12869
7.03824
6.9478
6.85734
6.76686
6.67636
6.58585
6.49532
6.40476
6.31419
6.2236
6.133
6.04237
5.95173
5.86108
5.77041
5.67972
5.58902
5.49831
5.40759
5.31686
5.22612
5.13537
5.04462
4.95386
4.86309
4.77232
4.68155
4.59077
4.5
4.40922
4.31844
4.22767
4.1369
4.04613
3.95537
3.86462
3.77387
3.68313
3.5924
3.50167
3.41096
3.32026
3.22958
3.13891
3.04825
2.95761
2.86698
2.77638
2.68579
2.59521
2.50466
2.41413
2.32361
2.23312
2.14264
2.05218
1.96173
1.87129
1.78081
1.69022
1.59945
1.50847
1.41723
1.32576
1.23411
1.14236
1.05058
0.958817
0.86704
0.775214
0.683314
0.591404
0.499655
0.408253
0.317324
0.226763
0.136234
0.0454545
8.95455
8.86378
8.77328
8.68278
8.59192
8.50055
8.40878
8.31681
8.22483
8.13293
8.04108
7.94925
7.8574
7.76558
7.67386
7.58231
7.49102
7.39999
7.3092
7.21861
7.12814
7.03773
6.94732
6.85689
6.76644
6.67598
6.58549
6.49498
6.40446
6.31391
6.22334
6.13276
6.04216
5.95153
5.8609
5.77024
5.67957
5.58889
5.49819
5.40749
5.31677
5.22604
5.1353
5.04456
4.95381
4.86305
4.77229
4.68153
4.59076
4.49999
4.40923
4.31846
4.2277
4.13694
4.04618
3.95543
3.86469
3.77395
3.68322
3.5925
3.50179
3.4111
3.32041
3.22974
3.13909
3.04845
2.95783
2.86722
2.77663
2.68607
2.59552
2.50499
2.41449
2.324
2.23353
2.14308
2.05265
1.96224
1.87184
1.78139
1.69081
1.60006
1.50907
1.41781
1.3263
1.2346
1.14279
1.05095
0.959117
0.867277
0.775385
0.683414
0.591433
0.499625
0.408188
0.317259
0.226723
0.136222
0.0454545
8.95455
8.86379
8.77332
8.68285
8.592
8.5006
8.40877
8.31673
8.22467
8.1327
8.04078
7.94888
7.85698
7.76509
7.67331
7.58172
7.4904
7.39937
7.30859
7.21801
7.12758
7.0372
6.94682
6.85643
6.76601
6.67558
6.58512
6.49464
6.40414
6.31362
6.22307
6.13251
6.04193
5.95133
5.86071
5.77007
5.67942
5.58875
5.49807
5.40738
5.31667
5.22595
5.13523
5.0445
4.95376
4.86301
4.77226
4.68151
4.59075
4.49999
4.40924
4.31848
4.22773
4.13698
4.04623
3.95549
3.86476
3.77403
3.68332
3.59261
3.50192
3.41123
3.32056
3.22991
3.13927
3.04865
2.95805
2.86747
2.7769
2.68636
2.59584
2.50533
2.41486
2.3244
2.23396
2.14354
2.05315
1.96277
1.8724
1.78198
1.69143
1.60068
1.50969
1.41841
1.32686
1.2351
1.14323
1.05132
0.959428
0.867523
0.775563
0.683518
0.591463
0.499593
0.408122
0.317192
0.226681
0.13621
0.0454545
8.95455
8.8638
8.77337
8.68293
8.59208
8.50064
8.40876
8.31664
8.2245
8.13246
8.04047
7.94851
7.85653
7.76458
7.67274
7.58111
7.48976
7.39872
7.30795
7.2174
7.127
7.03665
6.94631
6.85595
6.76557
6.67516
6.58473
6.49428
6.40381
6.31332
6.2228
6.13226
6.0417
5.95111
5.86051
5.7699
5.67926
5.58861
5.49794
5.40726
5.31657
5.22587
5.13515
5.04443
4.9537
4.86297
4.77223
4.68149
4.59074
4.49999
4.40925
4.3185
4.22776
4.13702
4.04628
3.95555
3.86483
3.77412
3.68342
3.59272
3.50204
3.41137
3.32072
3.23009
3.13947
3.04886
2.95828
2.86772
2.77718
2.68666
2.59616
2.50569
2.41524
2.32481
2.2344
2.14402
2.05366
1.96332
1.87298
1.78259
1.69207
1.60133
1.51033
1.41903
1.32744
1.23562
1.14368
1.05171
0.959751
0.867777
0.775746
0.683625
0.591494
0.499561
0.408053
0.317123
0.226639
0.136197
0.0454545
8.95455
8.86381
8.77341
8.683
8.59216
8.50069
8.40874
8.31654
8.22433
8.13221
8.04015
7.94812
7.85608
7.76406
7.67216
7.58048
7.4891
7.39805
7.30729
7.21676
7.12639
7.03609
6.94578
6.85546
6.76511
6.67473
6.58434
6.49392
6.40347
6.313
6.22251
6.13199
6.04146
5.9509
5.86031
5.76971
5.6791
5.58846
5.49781
5.40715
5.31647
5.22578
5.13508
5.04437
4.95365
4.86293
4.7722
4.68147
4.59073
4.49999
4.40926
4.31852
4.22779
4.13706
4.04634
3.95562
3.86491
3.77421
3.68352
3.59284
3.50217
3.41152
3.32088
3.23027
3.13966
3.04908
2.95852
2.86798
2.77746
2.68697
2.5965
2.50605
2.41563
2.32523
2.23486
2.14451
2.05419
1.96388
1.87358
1.78323
1.69273
1.602
1.511
1.41967
1.32803
1.23616
1.14415
1.05211
0.960084
0.868041
0.775937
0.683737
0.591526
0.499527
0.407981
0.317051
0.226595
0.136184
0.0454545
8.95455
8.86383
8.77346
8.68308
8.59224
8.50074
8.40872
8.31644
8.22415
8.13195
8.03982
7.94772
7.8556
7.76351
7.67155
7.57982
7.48842
7.39736
7.30661
7.21611
7.12577
7.0355
6.94524
6.85495
6.76463
6.67429
6.58393
6.49354
6.40312
6.31268
6.22221
6.13172
6.04121
5.95067
5.86011
5.76953
5.67893
5.58831
5.49767
5.40702
5.31636
5.22568
5.135
5.0443
4.9536
4.86288
4.77217
4.68144
4.59072
4.49999
4.40927
4.31854
4.22782
4.1371
4.04639
3.95568
3.86499
3.7743
3.68362
3.59296
3.50231
3.41167
3.32105
3.23045
3.13987
3.04931
2.95877
2.86825
2.77776
2.68729
2.59685
2.50643
2.41604
2.32567
2.23533
2.14502
2.05473
1.96446
1.8742
1.78388
1.69341
1.6027
1.51169
1.42034
1.32865
1.23672
1.14464
1.05253
0.96043
0.868314
0.776134
0.683852
0.59156
0.499493
0.407908
0.316976
0.226549
0.136171
0.0454545
8.95455
8.86384
8.77351
8.68316
8.59233
8.50079
8.40871
8.31634
8.22396
8.13168
8.03948
7.9473
7.85511
7.76295
7.67092
7.57915
7.48772
7.39665
7.30591
7.21543
7.12513
7.0349
6.94467
6.85442
6.76414
6.67384
6.58351
6.49315
6.40276
6.31235
6.22191
6.13144
6.04095
5.95044
5.8599
5.76934
5.67875
5.58815
5.49754
5.4069
5.31625
5.22559
5.13492
5.04423
4.95354
4.86284
4.77213
4.68142
4.59071
4.49999
4.40928
4.31856
4.22785
4.13715
4.04645
3.95575
3.86507
3.77439
3.68373
3.59308
3.50245
3.41183
3.32122
3.23064
3.14008
3.04954
2.95902
2.86853
2.77806
2.68762
2.59721
2.50682
2.41646
2.32613
2.23582
2.14554
2.05529
1.96506
1.87484
1.78456
1.69411
1.60342
1.5124
1.42102
1.32929
1.2373
1.14515
1.05296
0.960787
0.868597
0.776337
0.683971
0.591594
0.499457
0.407831
0.3169
0.226502
0.136157
0.0454545
8.95455
8.86386
8.77356
8.68325
8.59242
8.50084
8.40869
8.31624
8.22377
8.13141
8.03913
7.94687
7.85461
7.76237
7.67028
7.57845
7.48699
7.39592
7.30519
7.21473
7.12447
7.03428
6.94409
6.85388
6.76364
6.67337
6.58307
6.49275
6.40239
6.31201
6.2216
6.13116
6.04069
5.9502
5.85968
5.76914
5.67858
5.58799
5.49739
5.40677
5.31614
5.22549
5.13483
5.04416
4.95348
4.86279
4.7721
4.6814
4.5907
4.49999
4.40929
4.31859
4.22789
4.13719
4.0465
3.95582
3.86515
3.77449
3.68384
3.59321
3.50259
3.41198
3.3214
3.23084
3.1403
3.04978
2.95928
2.86881
2.77837
2.68796
2.59757
2.50722
2.41689
2.32659
2.23632
2.14608
2.05587
1.96568
1.8755
1.78526
1.69484
1.60415
1.51313
1.42173
1.32995
1.23789
1.14567
1.05341
0.961156
0.868888
0.776547
0.684094
0.59163
0.49942
0.407753
0.316821
0.226453
0.136143
0.0454545
8.95455
8.86387
8.77361
8.68333
8.59251
8.5009
8.40867
8.31613
8.22357
8.13113
8.03877
7.94643
7.85408
7.76177
7.66961
7.57773
7.48624
7.39516
7.30444
7.21401
7.12378
7.03364
6.94349
6.85332
6.76312
6.67289
6.58263
6.49233
6.40201
6.31166
6.22127
6.13086
6.04042
5.94995
5.85945
5.76893
5.67839
5.58783
5.49724
5.40664
5.31602
5.22539
5.13475
5.04409
4.95342
4.86274
4.77206
4.68137
4.59068
4.49999
4.4093
4.31861
4.22792
4.13724
4.04656
3.9559
3.86524
3.77459
3.68396
3.59334
3.50273
3.41215
3.32158
3.23104
3.14052
3.05002
2.95955
2.86911
2.77869
2.68831
2.59795
2.50763
2.41734
2.32707
2.23684
2.14664
2.05647
1.96632
1.87618
1.78598
1.69559
1.60492
1.51389
1.42246
1.33063
1.23851
1.14621
1.05387
0.961536
0.869189
0.776765
0.684221
0.591666
0.499382
0.407672
0.316739
0.226403
0.136128
0.0454545
8.95455
8.86389
8.77366
8.68342
8.5926
8.50095
8.40865
8.31602
8.22337
8.13083
8.03839
7.94597
7.85355
7.76115
7.66892
7.57699
7.48547
7.39437
7.30367
7.21327
7.12308
7.03298
6.94288
6.85275
6.76258
6.67239
6.58217
6.49191
6.40162
6.3113
6.22094
6.13056
6.04014
5.9497
5.85922
5.76873
5.6782
5.58766
5.49709
5.40651
5.31591
5.22529
5.13466
5.04401
4.95336
4.8627
4.77203
4.68135
4.59067
4.49999
4.40931
4.31863
4.22796
4.13729
4.04662
3.95597
3.86532
3.77469
3.68407
3.59347
3.50288
3.41232
3.32177
3.23125
3.14075
3.05027
2.95983
2.86941
2.77902
2.68867
2.59834
2.50805
2.41779
2.32757
2.23737
2.14721
2.05708
1.96698
1.87688
1.78672
1.69636
1.6057
1.51467
1.42321
1.33133
1.23914
1.14676
1.05434
0.961929
0.8695
0.776989
0.684352
0.591704
0.499343
0.407588
0.316655
0.226352
0.136113
0.0454545
8.95455
8.8639
8.77371
8.68351
8.5927
8.50101
8.40864
8.31591
8.22316
8.13053
8.038
7.9455
7.85299
7.76051
7.66821
7.57622
7.48467
7.39357
7.30288
7.21251
7.12236
7.0323
6.94224
6.85216
6.76204
6.67188
6.5817
6.49147
6.40122
6.31093
6.2206
6.13025
6.03986
5.94944
5.85899
5.76851
5.67801
5.58749
5.49694
5.40637
5.31579
5.22518
5.13457
5.04394
4.9533
4.86265
4.77199
4.68133
4.59066
4.49999
4.40932
4.31866
4.22799
4.13734
4.04669
3.95604
3.86541
3.7748
3.68419
3.59361
3.50304
3.41249
3.32196
3.23146
3.14098
3.05053
2.96011
2.86972
2.77936
2.68903
2.59874
2.50848
2.41826
2.32807
2.23792
2.1478
2.05771
1.96765
1.8776
1.78748
1.69715
1.60651
1.51547
1.42399
1.33206
1.23979
1.14734
1.05483
0.962334
0.86982
0.77722
0.684487
0.591743
0.499302
0.407502
0.316568
0.226298
0.136097
0.0454545
8.95455
8.86392
8.77377
8.68361
8.5928
8.50107
8.40862
8.31579
8.22294
8.13022
8.0376
7.94502
7.85242
7.75986
7.66748
7.57544
7.48385
7.39274
7.30206
7.21172
7.12162
7.03161
6.94159
6.85155
6.76147
6.67136
6.58121
6.49103
6.4008
6.31055
6.22025
6.12993
6.03956
5.94917
5.85875
5.76829
5.67781
5.58731
5.49678
5.40623
5.31566
5.22508
5.13447
5.04386
4.95323
4.86259
4.77195
4.6813
4.59065
4.49999
4.40934
4.31868
4.22803
4.13739
4.04675
3.95612
3.86551
3.7749
3.68432
3.59374
3.50319
3.41266
3.32216
3.23168
3.14122
3.0508
2.9604
2.87004
2.77971
2.68941
2.59915
2.50893
2.41874
2.32859
2.23848
2.1484
2.05836
1.96835
1.87835
1.78826
1.69797
1.60734
1.5163
1.42478
1.3328
1.24046
1.14793
1.05533
0.962751
0.87015
0.777457
0.684626
0.591783
0.49926
0.407413
0.316479
0.226244
0.136081
0.0454545
8.95455
8.86393
8.77383
8.68371
8.59291
8.50113
8.4086
8.31567
8.22272
8.1299
8.03719
7.94452
7.85183
7.75918
7.66673
7.57463
7.48301
7.39189
7.30122
7.21092
7.12085
7.03089
6.94093
6.85093
6.76089
6.67082
6.58072
6.49057
6.40038
6.31016
6.2199
6.1296
6.03927
5.9489
5.8585
5.76807
5.67761
5.58713
5.49662
5.40609
5.31554
5.22496
5.13438
5.04378
4.95317
4.86254
4.77191
4.68127
4.59063
4.49999
4.40935
4.31871
4.22807
4.13744
4.04681
3.9562
3.8656
3.77501
3.68444
3.59389
3.50335
3.41284
3.32236
3.2319
3.14147
3.05107
2.9607
2.87036
2.78006
2.6898
2.59957
2.50939
2.41924
2.32913
2.23906
2.14902
2.05902
1.96906
1.87911
1.78907
1.69881
1.6082
1.51715