/*--------------------------------*- C++ -*----------------------------------*\
| =========                 |                                                 |
| \\      /  F ield         | OpenFOAM: The Open Source CFD Toolbox           |
|  \\    /   O peration     | Version:  2112                                  |
|   \\  /    A nd           | Website:  www.openfoam.com                      |
|    \\/     M anipulation  |                                                 |
\*---------------------------------------------------------------------------*/
FoamFile
{
    version     2.0;
    format      ascii;
    arch        "LSB;label=32;scalar=64";
    class       volScalarField;
    location    "0";
    object      Cy;
}
// * * * * * * * * * * * * * * * * * * * * * * * * * * * * * * * * * * * * * //

dimensions      [0 1 0 0 0 0 0];

internalField   nonuniform List<scalar> 
14751
(
3.034
3.034
3.034
3.034
3.034
3.034
3.034
3.034
3.034
3.034
3.034
3.034
3.034
3.034
3.034
3.034
3.034
3.034
3.034
3.034
3.034
3.034
3.034
3.034
3.034
3.034
3.034
3.034
3.034
3.034
3.034
3.034
3.034
3.034
3.034
3.034
3.034
3.034
3.034
3.034
3.034
3.034
3.034
3.034
3.034
3.034
3.034
3.034
3.034
3.034
3.034
3.034
3.034
3.034
3.034
3.034
3.034
3.034
3.034
3.034
3.034
3.034
3.034
3.034
3.034
3.034
3.034
3.034
3.034
3.034
3.034
3.034
3.034
3.034
3.034
3.034
3.034
3.034
3.034
3.034
3.034
3.034
3.034
3.034
3.034
3.034
3.034
3.034
3.034
3.034
3.034
3.034
3.034
3.034
3.034
3.034
3.034
3.034
3.034
3.02991
3.02991
3.02991
3.0299
3.02989
3.02988
3.02987
3.02986
3.02985
3.02984
3.02983
3.02982
3.02981
3.0298
3.02979
3.02978
3.02977
3.02977
3.02976
3.02975
3.02974
3.02973
3.02973
3.02972
3.02971
3.0297
3.0297
3.02969
3.02969
3.02968
3.02968
3.02967
3.02967
3.02967
3.02966
3.02966
3.02966
3.02966
3.02965
3.02965
3.02965
3.02965
3.02965
3.02965
3.02965
3.02965
3.02965
3.02965
3.02965
3.02965
3.02965
3.02965
3.02965
3.02965
3.02965
3.02965
3.02965
3.02965
3.02965
3.02965
3.02966
3.02966
3.02966
3.02966
3.02966
3.02967
3.02967
3.02967
3.02968
3.02968
3.02969
3.02969
3.0297
3.0297
3.02971
3.02972
3.02972
3.02973
3.02974
3.02975
3.02975
3.02976
3.02977
3.02978
3.02979
3.0298
3.02981
3.02982
3.02983
3.02984
3.02985
3.02986
3.02987
3.02988
3.02989
3.0299
3.0299
3.02991
3.02991
3.02564
3.02564
3.02562
3.0256
3.02557
3.02553
3.0255
3.02546
3.02542
3.02538
3.02534
3.0253
3.02527
3.02523
3.02519
3.02516
3.02512
3.02509
3.02505
3.02502
3.02499
3.02496
3.02493
3.0249
3.02488
3.02485
3.02483
3.02481
3.02479
3.02477
3.02475
3.02474
3.02472
3.02471
3.0247
3.02469
3.02468
3.02467
3.02466
3.02465
3.02465
3.02464
3.02464
3.02463
3.02463
3.02462
3.02462
3.02462
3.02462
3.02462
3.02462
3.02462
3.02462
3.02462
3.02463
3.02463
3.02464
3.02464
3.02465
3.02465
3.02466
3.02467
3.02468
3.02469
3.0247
3.02471
3.02472
3.02474
3.02475
3.02477
3.02479
3.02481
3.02483
3.02485
3.02488
3.0249
3.02493
3.02496
3.02498
3.02502
3.02505
3.02508
3.02512
3.02515
3.02519
3.02522
3.02526
3.0253
3.02534
3.02538
3.02542
3.02546
3.02549
3.02553
3.02556
3.02559
3.02562
3.02563
3.02564
3.02118
3.02117
3.02114
3.02109
3.02103
3.02096
3.02088
3.0208
3.02072
3.02064
3.02055
3.02047
3.02039
3.02031
3.02023
3.02015
3.02008
3.02001
3.01994
3.01987
3.0198
3.01974
3.01968
3.01962
3.01956
3.01951
3.01946
3.01942
3.01937
3.01933
3.0193
3.01926
3.01923
3.0192
3.01917
3.01915
3.01913
3.01911
3.01909
3.01907
3.01906
3.01904
3.01903
3.01902
3.01902
3.01901
3.01901
3.019
3.019
3.019
3.019
3.019
3.01901
3.01901
3.01902
3.01902
3.01903
3.01904
3.01906
3.01907
3.01909
3.01911
3.01913
3.01915
3.01917
3.0192
3.01923
3.01926
3.01929
3.01933
3.01937
3.01941
3.01946
3.01951
3.01956
3.01961
3.01967
3.01973
3.01979
3.01986
3.01993
3.02
3.02007
3.02015
3.02023
3.0203
3.02039
3.02047
3.02055
3.02063
3.02071
3.02079
3.02087
3.02095
3.02102
3.02108
3.02113
3.02116
3.02117
3.01652
3.01651
3.01646
3.01638
3.01627
3.01615
3.01602
3.01589
3.01576
3.01562
3.01548
3.01534
3.01521
3.01507
3.01494
3.01481
3.01468
3.01456
3.01444
3.01433
3.01421
3.01411
3.014
3.01391
3.01381
3.01373
3.01364
3.01356
3.01349
3.01342
3.01336
3.0133
3.01325
3.0132
3.01315
3.01311
3.01307
3.01303
3.013
3.01298
3.01295
3.01293
3.01291
3.01289
3.01288
3.01287
3.01286
3.01285
3.01285
3.01285
3.01285
3.01285
3.01286
3.01287
3.01288
3.01289
3.01291
3.01293
3.01295
3.01297
3.013
3.01303
3.01307
3.0131
3.01315
3.01319
3.01324
3.0133
3.01335
3.01342
3.01348
3.01356
3.01363
3.01372
3.0138
3.0139
3.01399
3.01409
3.0142
3.01431
3.01443
3.01455
3.01467
3.0148
3.01493
3.01506
3.0152
3.01534
3.01547
3.01561
3.01575
3.01588
3.01601
3.01614
3.01625
3.01635
3.01644
3.01649
3.01651
3.01166
3.01164
3.01157
3.01145
3.01129
3.01112
3.01093
3.01074
3.01054
3.01034
3.01013
3.00993
3.00973
3.00953
3.00934
3.00914
3.00895
3.00877
3.00859
3.00842
3.00826
3.0081
3.00795
3.0078
3.00766
3.00753
3.00741
3.00729
3.00718
3.00708
3.00699
3.0069
3.00682
3.00674
3.00667
3.00661
3.00655
3.0065
3.00645
3.00641
3.00637
3.00634
3.00631
3.00629
3.00627
3.00625
3.00624
3.00623
3.00622
3.00622
3.00622
3.00623
3.00624
3.00625
3.00627
3.00629
3.00631
3.00634
3.00637
3.00641
3.00645
3.0065
3.00655
3.00661
3.00667
3.00674
3.00681
3.00689
3.00698
3.00707
3.00717
3.00728
3.0074
3.00752
3.00765
3.00779
3.00793
3.00808
3.00824
3.00841
3.00858
3.00876
3.00894
3.00913
3.00932
3.00952
3.00972
3.00992
3.01012
3.01032
3.01052
3.01072
3.01091
3.01109
3.01126
3.01141
3.01153
3.01162
3.01165
3.00658
3.00656
3.00645
3.00629
3.00608
3.00585
3.0056
3.00533
3.00506
3.00479
3.00451
3.00424
3.00396
3.00369
3.00343
3.00316
3.0029
3.00265
3.00241
3.00218
3.00195
3.00173
3.00152
3.00132
3.00113
3.00096
3.00079
3.00063
3.00048
3.00034
3.00021
3.00009
2.99997
2.99987
2.99978
2.99969
2.99961
2.99954
2.99947
2.99941
2.99936
2.99932
2.99928
2.99924
2.99922
2.99919
2.99917
2.99916
2.99915
2.99915
2.99915
2.99916
2.99917
2.99919
2.99921
2.99924
2.99927
2.99931
2.99936
2.99941
2.99947
2.99953
2.9996
2.99968
2.99977
2.99986
2.99996
3.00008
3.0002
3.00033
3.00046
3.00061
3.00077
3.00094
3.00112
3.00131
3.0015
3.00171
3.00193
3.00216
3.00239
3.00264
3.00289
3.00314
3.00341
3.00368
3.00395
3.00422
3.0045
3.00477
3.00504
3.00531
3.00557
3.00582
3.00604
3.00625
3.00641
3.00653
3.00657
3.00128
3.00125
3.00112
3.00091
3.00064
3.00034
3.00001
2.99968
2.99933
2.99898
2.99862
2.99827
2.99791
2.99756
2.99721
2.99687
2.99654
2.99622
2.9959
2.9956
2.9953
2.99502
2.99475
2.99449
2.99425
2.99401
2.99379
2.99359
2.99339
2.99321
2.99304
2.99288
2.99274
2.9926
2.99248
2.99236
2.99226
2.99217
2.99208
2.99201
2.99194
2.99188
2.99183
2.99178
2.99175
2.99172
2.99169
2.99168
2.99167
2.99166
2.99166
2.99167
2.99169
2.99171
2.99174
2.99178
2.99182
2.99187
2.99193
2.992
2.99208
2.99216
2.99225
2.99235
2.99247
2.99259
2.99272
2.99287
2.99303
2.99319
2.99337
2.99357
2.99377
2.99399
2.99422
2.99447
2.99473
2.995
2.99528
2.99557
2.99588
2.99619
2.99652
2.99685
2.99719
2.99754
2.99789
2.99825
2.9986
2.99895
2.9993
2.99965
2.99998
3.0003
3.00059
3.00085
3.00107
3.00121
3.00127
2.99575
2.99571
2.99554
2.99529
2.99495
2.99458
2.99418
2.99376
2.99333
2.9929
2.99245
2.99201
2.99157
2.99113
2.9907
2.99028
2.98986
2.98946
2.98907
2.98869
2.98832
2.98797
2.98763
2.98731
2.987
2.98671
2.98644
2.98618
2.98593
2.98571
2.98549
2.9853
2.98511
2.98495
2.98479
2.98465
2.98452
2.9844
2.9843
2.9842
2.98412
2.98404
2.98398
2.98392
2.98387
2.98384
2.98381
2.98379
2.98377
2.98377
2.98377
2.98378
2.9838
2.98383
2.98387
2.98392
2.98397
2.98403
2.98411
2.98419
2.98429
2.98439
2.98451
2.98464
2.98478
2.98493
2.9851
2.98528
2.98548
2.98569
2.98591
2.98615
2.98641
2.98669
2.98697
2.98728
2.9876
2.98794
2.98829
2.98866
2.98904
2.98943
2.98984
2.99025
2.99068
2.99111
2.99155
2.99199
2.99243
2.99287
2.9933
2.99373
2.99414
2.99454
2.9949
2.99522
2.99549
2.99567
2.99573
2.98998
2.98993
2.98973
2.98942
2.98902
2.98857
2.98809
2.98758
2.98707
2.98654
2.98601
2.98547
2.98494
2.98441
2.98389
2.98338
2.98287
2.98238
2.98191
2.98145
2.981
2.98058
2.98017
2.97978
2.9794
2.97905
2.97872
2.9784
2.97811
2.97783
2.97758
2.97734
2.97711
2.97691
2.97672
2.97655
2.97639
2.97625
2.97612
2.976
2.9759
2.97581
2.97573
2.97566
2.9756
2.97556
2.97552
2.9755
2.97548
2.97548
2.97548
2.9755
2.97552
2.97556
2.9756
2.97566
2.97572
2.9758
2.97589
2.97599
2.97611
2.97624
2.97638
2.97653
2.97671
2.97689
2.9771
2.97732
2.97755
2.97781
2.97808
2.97838
2.97869
2.97902
2.97937
2.97974
2.98013
2.98054
2.98097
2.98141
2.98187
2.98235
2.98284
2.98334
2.98386
2.98438
2.98491
2.98544
2.98597
2.98651
2.98703
2.98755
2.98805
2.98852
2.98896
2.98935
2.98966
2.98988
2.98996
2.98397
2.9839
2.98366
2.98329
2.98282
2.9823
2.98173
2.98113
2.98052
2.9799
2.97927
2.97864
2.97801
2.97738
2.97677
2.97616
2.97556
2.97498
2.97442
2.97388
2.97335
2.97284
2.97236
2.97189
2.97145
2.97103
2.97064
2.97027
2.96992
2.96959
2.96928
2.969
2.96874
2.96849
2.96827
2.96806
2.96788
2.96771
2.96755
2.96741
2.96729
2.96718
2.96709
2.96701
2.96694
2.96689
2.96684
2.96681
2.9668
2.96679
2.96679
2.96681
2.96684
2.96688
2.96694
2.967
2.96708
2.96717
2.96728
2.9674
2.96754
2.96769
2.96786
2.96805
2.96825
2.96847
2.96871
2.96898
2.96926
2.96956
2.96989
2.97024
2.97061
2.971
2.97142
2.97186
2.97232
2.9728
2.97331
2.97383
2.97438
2.97494
2.97553
2.97612
2.97673
2.97735
2.97797
2.9786
2.97923
2.97986
2.98048
2.98109
2.98168
2.98224
2.98276
2.98322
2.98359
2.98385
2.98394
2.97769
2.97761
2.97733
2.9769
2.97636
2.97575
2.9751
2.97441
2.9737
2.97297
2.97224
2.97151
2.97078
2.97005
2.96933
2.96862
2.96793
2.96725
2.9666
2.96596
2.96535
2.96476
2.9642
2.96366
2.96314
2.96265
2.96219
2.96176
2.96135
2.96097
2.96061
2.96028
2.95997
2.95969
2.95943
2.95919
2.95897
2.95877
2.95859
2.95843
2.95829
2.95816
2.95805
2.95796
2.95788
2.95782
2.95777
2.95773
2.95771
2.9577
2.95771
2.95773
2.95776
2.95781
2.95787
2.95795
2.95804
2.95815
2.95828
2.95842
2.95858
2.95876
2.95895
2.95917
2.95941
2.95967
2.95995
2.96025
2.96058
2.96094
2.96132
2.96172
2.96215
2.96261
2.9631
2.96361
2.96415
2.96471
2.9653
2.96591
2.96655
2.96721
2.96789
2.96858
2.96929
2.97001
2.97073
2.97147
2.9722
2.97293
2.97365
2.97436
2.97505
2.9757
2.9763
2.97683
2.97726
2.97756
2.97767
2.97115
2.97106
2.97073
2.97024
2.96962
2.96893
2.96818
2.96739
2.96657
2.96575
2.96491
2.96407
2.96323
2.96239
2.96157
2.96076
2.95996
2.95919
2.95843
2.95771
2.957
2.95632
2.95567
2.95505
2.95446
2.9539
2.95337
2.95288
2.95241
2.95197
2.95156
2.95118
2.95082
2.9505
2.9502
2.94992
2.94967
2.94944
2.94924
2.94905
2.94889
2.94874
2.94861
2.94851
2.94841
2.94834
2.94828
2.94824
2.94822
2.94821
2.94822
2.94824
2.94828
2.94833
2.94841
2.9485
2.9486
2.94873
2.94887
2.94903
2.94922
2.94942
2.94965
2.9499
2.95017
2.95047
2.95079
2.95114
2.95152
2.95193
2.95237
2.95283
2.95333
2.95386
2.95442
2.955
2.95562
2.95627
2.95695
2.95765
2.95838
2.95913
2.95991
2.96071
2.96152
2.96235
2.96318
2.96402
2.96486
2.9657
2.96653
2.96734
2.96812
2.96887
2.96956
2.97016
2.97066
2.971
2.97113
2.96434
2.96422
2.96384
2.96329
2.9626
2.96181
2.96096
2.96007
2.95915
2.95821
2.95726
2.95631
2.95536
2.95441
2.95347
2.95255
2.95165
2.95077
2.94992
2.94909
2.94829
2.94752
2.94678
2.94608
2.94541
2.94477
2.94417
2.94361
2.94307
2.94258
2.94211
2.94168
2.94128
2.9409
2.94056
2.94025
2.93996
2.9397
2.93947
2.93926
2.93907
2.93891
2.93876
2.93864
2.93854
2.93845
2.93839
2.93834
2.93831
2.9383
2.93831
2.93834
2.93838
2.93845
2.93853
2.93863
2.93875
2.93889
2.93906
2.93924
2.93945
2.93968
2.93994
2.94022
2.94053
2.94087
2.94124
2.94164
2.94207
2.94253
2.94303
2.94356
2.94412
2.94472
2.94536
2.94602
2.94672
2.94746
2.94823
2.94903
2.94985
2.95071
2.95159
2.9525
2.95342
2.95436
2.95531
2.95626
2.95721
2.95816
2.9591
2.96002
2.96091
2.96175
2.96253
2.96322
2.96378
2.96417
2.96431
2.95724
2.9571
2.95667
2.95605
2.95528
2.9544
2.95345
2.95245
2.95141
2.95036
2.9493
2.94822
2.94715
2.94609
2.94504
2.944
2.94299
2.942
2.94104
2.94011
2.93921
2.93835
2.93752
2.93672
2.93597
2.93526
2.93458
2.93394
2.93334
2.93278
2.93226
2.93177
2.93132
2.9309
2.93052
2.93016
2.92984
2.92955
2.92929
2.92905
2.92884
2.92865
2.92849
2.92835
2.92824
2.92814
2.92807
2.92802
2.92798
2.92797
2.92798
2.92801
2.92806
2.92813
2.92823
2.92834
2.92848
2.92864
2.92882
2.92903
2.92926
2.92953
2.92982
2.93013
2.93048
2.93087
2.93128
2.93173
2.93221
2.93273
2.93329
2.93389
2.93452
2.9352
2.93591
2.93666
2.93745
2.93828
2.93914
2.94004
2.94097
2.94193
2.94292
2.94394
2.94498
2.94603
2.9471
2.94817
2.94924
2.9503
2.95136
2.95239
2.95339
2.95434
2.95521
2.95599
2.95662
2.95705
2.95721
2.94984
2.94968
2.9492
2.94851
2.94765
2.94668
2.94562
2.94451
2.94336
2.94218
2.941
2.9398
2.93861
2.93742
2.93625
2.93509
2.93396
2.93286
2.93179
2.93075
2.92975
2.92878
2.92786
2.92698
2.92613
2.92534
2.92458
2.92387
2.9232
2.92258
2.92199
2.92145
2.92094
2.92048
2.92005
2.91965
2.9193
2.91897
2.91867
2.91841
2.91817
2.91797
2.91779
2.91763
2.9175
2.9174
2.91731
2.91726
2.91722
2.91721
2.91722
2.91725
2.91731
2.91739
2.91749
2.91762
2.91777
2.91795
2.91815
2.91839
2.91865
2.91894
2.91926
2.91962
2.92001
2.92044
2.9209
2.9214
2.92194
2.92252
2.92315
2.92381
2.92452
2.92527
2.92607
2.9269
2.92778
2.92871
2.92967
2.93067
2.93171
2.93278
2.93389
2.93502
2.93618
2.93736
2.93854
2.93974
2.94093
2.94212
2.9433
2.94445
2.94556
2.94662
2.94759
2.94845
2.94916
2.94964
2.94982
2.94214
2.94195
2.94143
2.94066
2.93971
2.93864
2.93747
2.93624
2.93497
2.93367
2.93235
2.93103
2.92971
2.92839
2.92709
2.92581
2.92456
2.92334
2.92215
2.921
2.91989
2.91882
2.9178
2.91682
2.91589
2.91501
2.91417
2.91338
2.91264
2.91195
2.9113
2.9107
2.91014
2.90962
2.90914
2.90871
2.90831
2.90795
2.90762
2.90733
2.90707
2.90684
2.90664
2.90646
2.90632
2.9062
2.90611
2.90605
2.90601
2.906
2.90601
2.90604
2.90611
2.90619
2.90631
2.90645
2.90662
2.90682
2.90704
2.9073
2.90759
2.90792
2.90828
2.90867
2.9091
2.90958
2.91009
2.91064
2.91124
2.91189
2.91258
2.91331
2.9141
2.91493
2.91581
2.91674
2.91772
2.91874
2.91981
2.92092
2.92207
2.92326
2.92448
2.92574
2.92702
2.92832
2.92964
2.93096
2.93229
2.9336
2.9349
2.93618
2.93741
2.93858
2.93966
2.94061
2.94139
2.94192
2.94212
2.93412
2.93391
2.93333
2.93249
2.93145
2.93027
2.92899
2.92763
2.92623
2.9248
2.92336
2.9219
2.92044
2.91899
2.91756
2.91615
2.91477
2.91343
2.91212
2.91085
2.90963
2.90846
2.90733
2.90625
2.90522
2.90425
2.90333
2.90246
2.90164
2.90088
2.90017
2.8995
2.89889
2.89832
2.89779
2.89731
2.89687
2.89647
2.89611
2.89579
2.8955
2.89525
2.89503
2.89484
2.89468
2.89455
2.89445
2.89438
2.89434
2.89432
2.89433
2.89437
2.89444
2.89454
2.89467
2.89482
2.89501
2.89523
2.89548
2.89576
2.89608
2.89644
2.89683
2.89727
2.89775
2.89827
2.89883
2.89944
2.90011
2.90081
2.90158
2.90239
2.90325
2.90417
2.90514
2.90616
2.90724
2.90836
2.90954
2.91076
2.91203
2.91334
2.91469
2.91607
2.91748
2.91892
2.92037
2.92183
2.92328
2.92473
2.92617
2.92757
2.92893
2.93022
2.9314
2.93245
2.9333
2.93389
2.93411
2.92578
2.92555
2.92491
2.92399
2.92286
2.92156
2.92016
2.91868
2.91715
2.91558
2.914
2.9124
2.9108
2.90922
2.90765
2.9061
2.90459
2.90311
2.90168
2.90029
2.89895
2.89767
2.89643
2.89525
2.89412
2.89306
2.89205
2.8911
2.8902
2.88936
2.88858
2.88785
2.88718
2.88655
2.88598
2.88545
2.88497
2.88453
2.88414
2.88378
2.88347
2.88319
2.88295
2.88274
2.88257
2.88243
2.88232
2.88224
2.88219
2.88217
2.88219
2.88223
2.88231
2.88241
2.88255
2.88272
2.88293
2.88317
2.88344
2.88375
2.8841
2.8845
2.88493
2.88541
2.88593
2.8865
2.88712
2.88779
2.88851
2.88929
2.89013
2.89102
2.89196
2.89297
2.89403
2.89515
2.89633
2.89756
2.89885
2.90019
2.90158
2.90302
2.90449
2.90601
2.90756
2.90913
2.91072
2.91232
2.91392
2.91551
2.91708
2.91862
2.9201
2.92151
2.92281
2.92395
2.92489
2.92554
2.92578
2.91711
2.91685
2.91616
2.91515
2.91392
2.91251
2.91098
2.90937
2.90769
2.90599
2.90426
2.90252
2.90078
2.89904
2.89733
2.89564
2.89399
2.89238
2.89082
2.88931
2.88785
2.88644
2.88509
2.8838
2.88258
2.88141
2.88031
2.87927
2.8783
2.87738
2.87653
2.87574
2.875
2.87432
2.87369
2.87312
2.87259
2.87211
2.87168
2.8713
2.87095
2.87065
2.87038
2.87016
2.86997
2.86981
2.86969
2.86961
2.86956
2.86954
2.86955
2.8696
2.86969
2.8698
2.86995
2.87014
2.87036
2.87062
2.87092
2.87126
2.87165
2.87207
2.87255
2.87307
2.87364
2.87426
2.87494
2.87567
2.87646
2.87731
2.87822
2.87919
2.88022
2.88132
2.88248
2.8837
2.88499
2.88633
2.88773
2.8892
2.89071
2.89228
2.89389
2.89554
2.89723
2.89895
2.90069
2.90243
2.90417
2.90591
2.90762
2.9093
2.91092
2.91246
2.91387
2.91512
2.91614
2.91685
2.91711
2.9081
2.90782
2.90706
2.90597
2.90463
2.9031
2.90144
2.89968
2.89787
2.89602
2.89414
2.89224
2.89035
2.88847
2.8866
2.88477
2.88298
2.88123
2.87953
2.87788
2.8763
2.87477
2.8733
2.8719
2.87057
2.86931
2.86811
2.86698
2.86592
2.86493
2.864
2.86314
2.86234
2.8616
2.86092
2.86029
2.85972
2.8592
2.85873
2.85831
2.85794
2.85761
2.85732
2.85708
2.85687
2.8567
2.85657
2.85648
2.85642
2.8564
2.85642
2.85647
2.85656
2.85669
2.85685
2.85705
2.8573
2.85758
2.85791
2.85828
2.85869
2.85916
2.85967
2.86024
2.86086
2.86153
2.86227
2.86306
2.86392
2.86484
2.86583
2.86689
2.86801
2.8692
2.87046
2.87179
2.87319
2.87465
2.87618
2.87776
2.87941
2.88111
2.88286
2.88466
2.8865
2.88836
2.89025
2.89215
2.89404
2.89593
2.89779
2.89962
2.90138
2.90305
2.90459
2.90594
2.90705
2.90782
2.9081
2.89874
2.89843
2.89761
2.89643
2.89498
2.89332
2.89153
2.88963
2.88766
2.88565
2.88361
2.88156
2.87951
2.87747
2.87545
2.87347
2.87152
2.86963
2.86779
2.86601
2.86429
2.86264
2.86105
2.85954
2.85809
2.85672
2.85543
2.85421
2.85306
2.85198
2.85098
2.85004
2.84918
2.84838
2.84764
2.84696
2.84634
2.84578
2.84527
2.84482
2.84441
2.84406
2.84375
2.84348
2.84326
2.84307
2.84293
2.84283
2.84277
2.84275
2.84277
2.84283
2.84292
2.84306
2.84324
2.84346
2.84372
2.84403
2.84438
2.84478
2.84523
2.84573
2.84629
2.8469
2.84757
2.84831
2.8491
2.84996
2.85089
2.85189
2.85296
2.8541
2.85532
2.85661
2.85798
2.85942
2.86093
2.86251
2.86416
2.86588
2.86766
2.8695
2.8714
2.87335
2.87534
2.87736
2.87941
2.88146
2.88352
2.88556
2.88758
2.88955
2.89146
2.89327
2.89493
2.8964
2.8976
2.89843
2.89874
2.88901
2.88868
2.88779
2.88652
2.88495
2.88317
2.88123
2.87918
2.87705
2.87488
2.87268
2.87047
2.86825
2.86605
2.86387
2.86172
2.85963
2.85758
2.8556
2.85367
2.85182
2.85003
2.84832
2.84669
2.84513
2.84365
2.84225
2.84093
2.83969
2.83853
2.83745
2.83644
2.8355
2.83464
2.83384
2.83311
2.83245
2.83184
2.83129
2.8308
2.83036
2.82998
2.82964
2.82935
2.82911
2.82892
2.82877
2.82866
2.82859
2.82857
2.82859
2.82865
2.82875
2.8289
2.82909
2.82933
2.82961
2.82994
2.83033
2.83076
2.83125
2.83179
2.83239
2.83305
2.83378
2.83457
2.83542
2.83635
2.83736
2.83843
2.83959
2.84082
2.84214
2.84353
2.845
2.84656
2.84819
2.84989
2.85168
2.85353
2.85546
2.85745
2.8595
2.8616
2.86375
2.86593
2.86814
2.87036
2.87258
2.87479
2.87696
2.8791
2.88116
2.88311
2.88491
2.88649
2.88779
2.88868
2.88901
2.87891
2.87856
2.8776
2.87623
2.87454
2.87262
2.87053
2.86833
2.86604
2.8637
2.86133
2.85895
2.85656
2.85419
2.85184
2.84953
2.84727
2.84507
2.84293
2.84086
2.83886
2.83694
2.8351
2.83334
2.83166
2.83007
2.82857
2.82715
2.82581
2.82457
2.8234
2.82231
2.82131
2.82038
2.81952
2.81873
2.81802
2.81736
2.81677
2.81625
2.81577
2.81536
2.815
2.81469
2.81443
2.81422
2.81406
2.81394
2.81387
2.81384
2.81386
2.81393
2.81404
2.8142
2.81441
2.81466
2.81497
2.81532
2.81573
2.8162
2.81672
2.81731
2.81795
2.81867
2.81945
2.8203
2.82122
2.82222
2.8233
2.82446
2.8257
2.82703
2.82844
2.82994
2.83153
2.8332
2.83496
2.83679
2.83871
2.84071
2.84278
2.84492
2.84713
2.84939
2.85171
2.85406
2.85644
2.85883
2.86122
2.8636
2.86595
2.86824
2.87046
2.87257
2.8745
2.8762
2.8776
2.87856
2.87892
2.86844
2.86805
2.86703
2.86555
2.86374
2.86168
2.85944
2.85706
2.85461
2.8521
2.84955
2.84699
2.84442
2.84187
2.83935
2.83687
2.83444
2.83208
2.82978
2.82756
2.82541
2.82335
2.82138
2.81949
2.81769
2.81598
2.81436
2.81284
2.81141
2.81007
2.80882
2.80765
2.80657
2.80557
2.80465
2.80381
2.80304
2.80234
2.80171
2.80114
2.80063
2.80019
2.7998
2.79947
2.79919
2.79896
2.79879
2.79866
2.79859
2.79856
2.79858
2.79865
2.79877
2.79894
2.79916
2.79944
2.79977
2.80015
2.80059
2.80109
2.80165
2.80228
2.80297
2.80373
2.80457
2.80549
2.80648
2.80755
2.80871
2.80995
2.81129
2.81271
2.81423
2.81584
2.81754
2.81934
2.82122
2.82319
2.82525
2.8274
2.82962
2.83192
2.83429
2.83672
2.83921
2.84174
2.84429
2.84686
2.84943
2.85199
2.85451
2.85698
2.85936
2.86162
2.86369
2.86552
2.86702
2.86806
2.86844
2.85757
2.85716
2.85606
2.85448
2.85254
2.85033
2.84793
2.84538
2.84275
2.84006
2.83733
2.83458
2.83183
2.8291
2.82639
2.82373
2.82113
2.81859
2.81614
2.81376
2.81146
2.80925
2.80713
2.80511
2.80318
2.80135
2.79962
2.79799
2.79646
2.79503
2.79368
2.79244
2.79128
2.79021
2.78923
2.78832
2.7875
2.78675
2.78607
2.78546
2.78492
2.78445
2.78403
2.78367
2.78338
2.78313
2.78295
2.78281
2.78273
2.7827
2.78273
2.7828
2.78293
2.78311
2.78335
2.78364
2.78399
2.7844
2.78488
2.78541
2.78601
2.78668
2.78743
2.78824
2.78914
2.79012
2.79118
2.79233
2.79357
2.7949
2.79633
2.79786
2.79948
2.80121
2.80303
2.80495
2.80697
2.80908
2.81129
2.81358
2.81596
2.81843
2.82097
2.82357
2.82624
2.82895
2.83169
2.83444
2.8372
2.83994
2.84264
2.84529
2.84784
2.85026
2.85249
2.85445
2.85605
2.85716
2.85757
2.8463
2.84586
2.84469
2.843
2.84092
2.83856
2.83599
2.83327
2.83045
2.82757
2.82465
2.82171
2.81877
2.81584
2.81295
2.8101
2.80732
2.80461
2.80198
2.79944
2.79699
2.79463
2.79236
2.7902
2.78814
2.78619
2.78434
2.7826
2.78096
2.77943
2.77799
2.77666
2.77542
2.77428
2.77323
2.77226
2.77138
2.77058
2.76986
2.76921
2.76863
2.76812
2.76768
2.7673
2.76698
2.76672
2.76652
2.76638
2.76629
2.76626
2.76629
2.76637
2.76651
2.7667
2.76695
2.76727
2.76764
2.76808
2.76858
2.76915
2.7698
2.77051
2.77131
2.77218
2.77314
2.77418
2.77532
2.77655
2.77787
2.7793
2.78082
2.78245
2.78419
2.78603
2.78798
2.79003
2.79219
2.79444
2.7968
2.79925
2.8018
2.80443
2.80715
2.80993
2.81279
2.81569
2.81862
2.82157
2.82452
2.82744
2.83034
2.83317
2.8359
2.83849
2.84087
2.84296
2.84468
2.84586
2.8463
2.83463
2.83416
2.8329
2.8311
2.82888
2.82636
2.82362
2.82071
2.81771
2.81463
2.81151
2.80837
2.80523
2.80211
2.79902
2.79598
2.79301
2.79012
2.78731
2.7846
2.78198
2.77946
2.77705
2.77474
2.77255
2.77047
2.76849
2.76664
2.76489
2.76325
2.76173
2.76031
2.75899
2.75777
2.75665
2.75562
2.75468
2.75383
2.75306
2.75236
2.75175
2.75121
2.75073
2.75033
2.74999
2.74971
2.7495
2.74935
2.74925
2.74922
2.74925
2.74934
2.74948
2.74969
2.74996
2.75029
2.75069
2.75116
2.7517
2.7523
2.75299
2.75375
2.7546
2.75553
2.75655
2.75767
2.75888
2.76019
2.7616
2.76312
2.76474
2.76648
2.76833
2.7703
2.77237
2.77456
2.77686
2.77927
2.78178
2.7844
2.78711
2.78992
2.79282
2.7958
2.79884
2.80194
2.80507
2.80822
2.81137
2.8145
2.81758
2.82061
2.82353
2.82629
2.82883
2.83106
2.83289
2.83416
2.83463
2.82253
2.82203
2.82069
2.81877
2.81641
2.81373
2.8108
2.80771
2.8045
2.80122
2.7979
2.79455
2.79121
2.78787
2.78458
2.78134
2.77818
2.7751
2.77211
2.76922
2.76643
2.76375
2.76118
2.75873
2.75639
2.75418
2.75208
2.7501
2.74824
2.7465
2.74488
2.74336
2.74196
2.74066
2.73947
2.73838
2.73738
2.73647
2.73565
2.73491
2.73426
2.73368
2.73318
2.73275
2.73239
2.73209
2.73187
2.7317
2.73161
2.73157
2.7316
2.73169
2.73185
2.73207
2.73236
2.73271
2.73313
2.73363
2.7342
2.73485
2.73558
2.73639
2.73729
2.73828
2.73937
2.74055
2.74184
2.74323
2.74474
2.74635
2.74809
2.74994
2.7519
2.75399
2.75621
2.75854
2.76098
2.76355
2.76622
2.76901
2.7719
2.77489
2.77798
2.78115
2.78439
2.78769
2.79103
2.79439
2.79774
2.80108
2.80437
2.8076
2.81071
2.81365
2.81635
2.81873
2.82068
2.82203
2.82253
2.81001
2.80948
2.80806
2.80601
2.8035
2.80065
2.79754
2.79424
2.79083
2.78734
2.78381
2.78024
2.77668
2.77313
2.76963
2.76618
2.76281
2.75954
2.75636
2.75329
2.75033
2.74748
2.74475
2.74214
2.73966
2.7373
2.73508
2.73298
2.731
2.72915
2.72743
2.72582
2.72433
2.72295
2.72169
2.72052
2.71946
2.7185
2.71763
2.71684
2.71615
2.71554
2.715
2.71454
2.71416
2.71385
2.71361
2.71344
2.71333
2.7133
2.71333
2.71342
2.71359
2.71382
2.71413
2.7145
2.71496
2.71548
2.71609
2.71678
2.71755
2.71841
2.71937
2.72042
2.72158
2.72283
2.7242
2.72568
2.72728
2.729
2.73084
2.7328
2.73489
2.73711
2.73946
2.74194
2.74454
2.74726
2.75011
2.75307
2.75614
2.75932
2.7626
2.76597
2.76942
2.77294
2.77649
2.78007
2.78364
2.78719
2.79069
2.79412
2.79743
2.80057
2.80344
2.80597
2.80804
2.80948
2.81001
2.79706
2.79649
2.79498
2.79281
2.79014
2.78711
2.78381
2.78031
2.77668
2.77298
2.76922
2.76543
2.76164
2.75788
2.75415
2.75049
2.74691
2.74343
2.74006
2.7368
2.73366
2.73064
2.72774
2.72498
2.72234
2.71984
2.71748
2.71525
2.71316
2.7112
2.70936
2.70766
2.70608
2.70462
2.70328
2.70205
2.70092
2.6999
2.69898
2.69815
2.69741
2.69676
2.69619
2.69571
2.6953
2.69497
2.69472
2.69453
2.69442
2.69438
2.69442
2.69452
2.6947
2.69494
2.69527
2.69567
2.69614
2.6967
2.69734
2.69807
2.69889
2.69981
2.70082
2.70194
2.70316
2.7045
2.70595
2.70752
2.70921
2.71103
2.71298
2.71506
2.71728
2.71964
2.72213
2.72476
2.72752
2.73041
2.73342
2.73656
2.73983
2.7432
2.74669
2.75027
2.75393
2.75767
2.76144
2.76524
2.76904
2.77281
2.77654
2.78018
2.7837
2.78703
2.79008
2.79277
2.79497
2.79649
2.79706
2.78366
2.78306
2.78146
2.77916
2.77633
2.77312
2.76961
2.7659
2.76205
2.75812
2.75413
2.75011
2.74609
2.74209
2.73814
2.73426
2.73046
2.72677
2.7232
2.71974
2.71641
2.71321
2.71015
2.70722
2.70443
2.70178
2.69927
2.69691
2.6947
2.69262
2.69068
2.68888
2.68721
2.68566
2.68424
2.68293
2.68174
2.68066
2.67968
2.67881
2.67803
2.67734
2.67674
2.67623
2.6758
2.67545
2.67518
2.67498
2.67487
2.67483
2.67486
2.67497
2.67516
2.67542
2.67576
2.67618
2.67669
2.67728
2.67796
2.67873
2.6796
2.68057
2.68164
2.68282
2.68412
2.68553
2.68706
2.68873
2.69052
2.69245
2.69451
2.69672
2.69907
2.70156
2.7042
2.70698
2.70991
2.71297
2.71616
2.71949
2.72295
2.72653
2.73022
2.73402
2.73791
2.74187
2.74588
2.74991
2.75394
2.75794
2.7619
2.76576
2.7695
2.77303
2.77627
2.77912
2.78144
2.78306
2.78366
2.76982
2.76919
2.76749
2.76505
2.76206
2.75865
2.75494
2.751
2.74693
2.74276
2.73853
2.73427
2.73001
2.72577
2.72158
2.71747
2.71345
2.70954
2.70576
2.7021
2.69858
2.6952
2.69195
2.68885
2.6859
2.6831
2.68045
2.67796
2.67561
2.67342
2.67137
2.66946
2.66769
2.66606
2.66456
2.66318
2.66192
2.66078
2.65974
2.65882
2.65799
2.65727
2.65663
2.65609
2.65564
2.65527
2.65498
2.65478
2.65465
2.65461
2.65465
2.65476
2.65496
2.65524
2.6556
2.65604
2.65658
2.6572
2.65792
2.65874
2.65965
2.66068
2.66181
2.66306
2.66443
2.66592
2.66754
2.6693
2.67119
2.67323
2.67542
2.67775
2.68023
2.68287
2.68566
2.6886
2.6917
2.69494
2.69832
2.70184
2.70549
2.70928
2.71319
2.71722
2.72134
2.72553
2.72978
2.73406
2.73833
2.74257
2.74676
2.75086
2.75482
2.75856
2.76199
2.76501
2.76747
2.76918
2.76982
2.75552
2.75485
2.75306
2.75048
2.74731
2.74371
2.73978
2.73562
2.7313
2.72689
2.72241
2.71791
2.71339
2.70891
2.70447
2.70012
2.69587
2.69174
2.68774
2.68388
2.68015
2.67658
2.67315
2.66987
2.66676
2.6638
2.661
2.65837
2.65589
2.65357
2.65141
2.6494
2.64753
2.64581
2.64422
2.64277
2.64144
2.64023
2.63914
2.63817
2.6373
2.63653
2.63586
2.63529
2.63481
2.63442
2.63412
2.6339
2.63377
2.63373
2.63377
2.63389
2.6341
2.63439
2.63477
2.63524
2.6358
2.63646
2.63722
2.63808
2.63905
2.64013
2.64132
2.64264
2.64408
2.64566
2.64737
2.64923
2.65123
2.65338
2.65568
2.65815
2.66077
2.66356
2.66651
2.66961
2.67288
2.6763
2.67987
2.68359
2.68746
2.69146
2.6956
2.69985
2.70421
2.70866
2.71315
2.71768
2.7222
2.72669
2.73113
2.73547
2.73966
2.74361
2.74724
2.75043
2.75304
2.75485
2.75552
2.74076
2.74006
2.73816
2.73544
2.7321
2.72829
2.72414
2.71974
2.71517
2.7105
2.70577
2.70101
2.69624
2.69149
2.68681
2.68221
2.67771
2.67335
2.66913
2.66505
2.66112
2.65735
2.65373
2.65027
2.64699
2.64387
2.64092
2.63814
2.63553
2.63308
2.6308
2.62868
2.62672
2.6249
2.62323
2.62169
2.62029
2.61902
2.61787
2.61684
2.61593
2.61512
2.61442
2.61381
2.61331
2.6129
2.61258
2.61236
2.61222
2.61217
2.61221
2.61234
2.61256
2.61287
2.61327
2.61376
2.61436
2.61505
2.61585
2.61675
2.61777
2.61891
2.62017
2.62156
2.62308
2.62474
2.62655
2.6285
2.63061
2.63288
2.63531
2.63791
2.64067
2.64361
2.64672
2.65
2.65345
2.65706
2.66082
2.66475
2.66883
2.67306
2.67742
2.68192
2.68653
2.69122
2.69598
2.70076
2.70555
2.7103
2.71499
2.71958
2.724
2.72819
2.73202
2.73539
2.73814
2.74005
2.74076
2.72554
2.7248
2.7228
2.71992
2.7164
2.71238
2.708
2.70335
2.69853
2.6936
2.6886
2.68357
2.67853
2.67352
2.66857
2.66371
2.65897
2.65437
2.64991
2.64561
2.64147
2.63749
2.63368
2.63004
2.62658
2.62329
2.62019
2.61726
2.61451
2.61194
2.60954
2.6073
2.60523
2.60332
2.60156
2.59995
2.59847
2.59714
2.59593
2.59484
2.59388
2.59303
2.59229
2.59166
2.59113
2.5907
2.59036
2.59012
2.58998
2.58993
2.58997
2.59011
2.59033
2.59066
2.59108
2.5916
2.59223
2.59296
2.5938
2.59475
2.59582
2.59702
2.59835
2.59981
2.60141
2.60316
2.60506
2.60711
2.60933
2.61172
2.61428
2.61702
2.61993
2.62303
2.6263
2.62975
2.63339
2.63719
2.64116
2.6453
2.6496
2.65406
2.65866
2.66341
2.66827
2.67323
2.67826
2.68331
2.68836
2.69338
2.69833
2.70318
2.70786
2.71227
2.71632
2.71988
2.72278
2.72479
2.72554
2.70985
2.70907
2.70696
2.70393
2.70022
2.69598
2.69136
2.68645
2.68137
2.67617
2.67089
2.66558
2.66027
2.65498
2.64976
2.64464
2.63964
2.63479
2.63009
2.62557
2.62121
2.61702
2.61301
2.60918
2.60553
2.60207
2.59881
2.59573
2.59284
2.59013
2.5876
2.58526
2.58308
2.58107
2.57922
2.57752
2.57597
2.57457
2.5733
2.57216
2.57115
2.57025
2.56948
2.56881
2.56825
2.5678
2.56745
2.5672
2.56705
2.567
2.56704
2.56718
2.56742
2.56776
2.56821
2.56875
2.56941
2.57018
2.57106
2.57206
2.57319
2.57445
2.57584
2.57737
2.57906
2.58089
2.58289
2.58505
2.58739
2.5899
2.59259
2.59547
2.59854
2.60179
2.60524
2.60887
2.61269
2.6167
2.62088
2.62523
2.62976
2.63446
2.63931
2.64431
2.64944
2.65468
2.65998
2.66531
2.67064
2.67593
2.68116
2.68627
2.69121
2.69587
2.70014
2.70388
2.70694
2.70906
2.70985
2.69369
2.69287
2.69065
2.68746
2.68355
2.67909
2.67422
2.66905
2.66369
2.6582
2.65264
2.64704
2.64144
2.63587
2.63037
2.62497
2.61971
2.6146
2.60966
2.6049
2.60031
2.59591
2.59169
2.58766
2.58383
2.5802
2.57677
2.57353
2.57049
2.56765
2.565
2.56253
2.56025
2.55813
2.55619
2.55441
2.55279
2.55131
2.54998
2.54879
2.54772
2.54679
2.54597
2.54527
2.54469
2.54421
2.54385
2.54358
2.54342