/*--------------------------------*- C++ -*----------------------------------*\
| =========                 |                                                 |
| \\      /  F ield         | OpenFOAM: The Open Source CFD Toolbox           |
|  \\    /   O peration     | Version:  2112                                  |
|   \\  /    A nd           | Website:  www.openfoam.com                      |
|    \\/     M anipulation  |                                                 |
\*---------------------------------------------------------------------------*/
FoamFile
{
    version     2.0;
    format      ascii;
    arch        "LSB;label=32;scalar=64";
    class       volVectorField;
    location    "0";
    object      C;
}
// * * * * * * * * * * * * * * * * * * * * * * * * * * * * * * * * * * * * * //

dimensions      [0 1 0 0 0 0 0];

internalField   nonuniform List<vector> 
14336
(
(453.135 -0.5 -1.75636e-06)
(366.57 -0.5 -1.75636e-06)
(296.578 -0.5 -1.75636e-06)
(239.986 -0.5 -1.75637e-06)
(194.228 -0.5 -1.75637e-06)
(157.231 -0.5 -1.75638e-06)
(127.317 -0.5 -1.75638e-06)
(103.13 -0.5 -1.75639e-06)
(83.5733 -0.5 -1.7564e-06)
(67.761 -0.5 -1.75641e-06)
(54.976 -0.5 -1.75643e-06)
(44.6387 -0.5 -1.75644e-06)
(36.2804 -0.5 -1.75647e-06)
(29.5224 -0.5 -1.7565e-06)
(24.0582 -0.5 -1.75653e-06)
(19.6401 -0.5 -1.75657e-06)
(16.0679 -0.5 -1.75663e-06)
(13.1796 -0.5 -1.75669e-06)
(10.8442 -0.5 -1.75677e-06)
(8.95599 -0.5 -1.75687e-06)
(7.42925 -0.5 -1.757e-06)
(6.19481 -0.5 -1.75715e-06)
(5.1967 -0.5 -1.75734e-06)
(4.38968 -0.5 -1.75758e-06)
(3.73716 -0.5 -1.75787e-06)
(3.20957 -0.5 -1.75823e-06)
(2.78299 -0.5 -1.75868e-06)
(2.43808 -0.5 -1.75923e-06)
(2.1592 -0.5 -1.75991e-06)
(1.93371 -0.5 -1.76075e-06)
(1.75139 -0.5 -1.76179e-06)
(1.60398 -0.5 -1.76308e-06)
(1.48479 -0.5 -1.76468e-06)
(1.38842 -0.5 -1.76665e-06)
(1.3105 -0.5 -1.76909e-06)
(1.2475 -0.5 -1.77211e-06)
(1.19656 -0.5 -1.77584e-06)
(1.15537 -0.5 -1.78046e-06)
(1.12206 -0.5 -1.78617e-06)
(1.09514 -0.5 -1.79323e-06)
(1.07337 -0.5 -1.80196e-06)
(1.05576 -0.5 -1.81276e-06)
(1.04153 -0.5 -1.82612e-06)
(1.03002 -0.5 -1.84264e-06)
(1.02072 -0.5 -1.86308e-06)
(1.01319 -0.5 -1.88836e-06)
(1.00711 -0.5 -1.91963e-06)
(1.00219 -0.5 -1.95481e-06)
(0.997895 -0.5 -0.000299791)
(0.993359 -0.5 -0.000939786)
(0.988136 -0.5 -0.00167202)
(0.982134 -0.5 -0.00250758)
(0.97525 -0.5 -0.00345847)
(0.967368 -0.5 -0.00453723)
(0.958364 -0.5 -0.00575679)
(0.948106 -0.5 -0.00713005)
(0.936453 -0.5 -0.00866949)
(0.92326 -0.5 -0.0103866)
(0.908381 -0.5 -0.0122911)
(0.891671 -0.5 -0.0143904)
(0.872995 -0.5 -0.0166883)
(0.852235 -0.5 -0.0191843)
(0.829295 -0.5 -0.0218727)
(0.804112 -0.5 -0.0247409)
(0.776668 -0.5 -0.0277694)
(0.746993 -0.5 -0.0309302)
(0.715179 -0.5 -0.0341865)
(0.68138 -0.5 -0.0374927)
(0.645819 -0.5 -0.0407942)
(0.608782 -0.5 -0.0440283)
(0.570613 -0.5 -0.0471265)
(0.531705 -0.5 -0.0500162)
(0.49248 -0.5 -0.0526247)
(0.453377 -0.5 -0.0548831)
(0.414829 -0.5 -0.0567306)
(0.377246 -0.5 -0.058119)
(0.340998 -0.5 -0.0590159)
(0.306401 -0.5 -0.0594065)
(0.273711 -0.5 -0.0592943)
(0.243117 -0.5 -0.0587003)
(0.214742 -0.5 -0.0576598)
(0.188649 -0.5 -0.0562194)
(0.164842 -0.5 -0.0544329)
(0.14328 -0.5 -0.0523578)
(0.123885 -0.5 -0.0500516)
(0.106549 -0.5 -0.0475693)
(0.091144 -0.5 -0.0449614)
(0.0775302 -0.5 -0.0422727)
(0.0655623 -0.5 -0.039542)
(0.0550942 -0.5 -0.0368018)
(0.0459837 -0.5 -0.034079)
(0.038095 -0.5 -0.0313952)
(0.0313007 -0.5 -0.0287677)
(0.0254828 -0.5 -0.0262106)
(0.0205337 -0.5 -0.0237351)
(0.0163551 -0.5 -0.021351)
(0.0128583 -0.5 -0.019067)
(0.00996283 -0.5 -0.0168919)
(0.00759503 -0.5 -0.0148343)
(0.00568699 -0.5 -0.0129033)
(0.00417523 -0.5 -0.0111073)
(0.0029999 -0.5 -0.00945364)
(0.00210479 -0.5 -0.00794712)
(0.00143789 -0.5 -0.00658911)
(0.000952363 -0.5 -0.00537706)
(0.000607487 -0.5 -0.00430475)
(0.000369117 -0.5 -0.00336302)
(0.000209644 -0.5 -0.00254083)
(0.00010742 -0.5 -0.00182623)
(4.59184e-05 -0.5 -0.00120723)
(1.27941e-05 -0.5 -0.000672333)
(-9.96338e-07 -0.5 -0.000211083)
(-9.96338e-07 -0.5 0.000211083)
(1.27941e-05 -0.5 0.000672333)
(4.59184e-05 -0.5 0.00120723)
(0.00010742 -0.5 0.00182623)
(0.000209644 -0.5 0.00254083)
(0.000369117 -0.5 0.00336302)
(0.000607487 -0.5 0.00430475)
(0.000952363 -0.5 0.00537706)
(0.00143789 -0.5 0.00658911)
(0.00210479 -0.5 0.00794712)
(0.0029999 -0.5 0.00945364)
(0.00417523 -0.5 0.0111073)
(0.00568699 -0.5 0.0129033)
(0.00759503 -0.5 0.0148343)
(0.00996283 -0.5 0.0168919)
(0.0128583 -0.5 0.019067)
(0.0163551 -0.5 0.021351)
(0.0205337 -0.5 0.0237351)
(0.0254828 -0.5 0.0262106)
(0.0313007 -0.5 0.0287677)
(0.038095 -0.5 0.0313952)
(0.0459837 -0.5 0.034079)
(0.0550942 -0.5 0.0368018)
(0.0655623 -0.5 0.039542)
(0.0775302 -0.5 0.0422727)
(0.091144 -0.5 0.0449614)
(0.106549 -0.5 0.0475693)
(0.123885 -0.5 0.0500516)
(0.14328 -0.5 0.0523578)
(0.164842 -0.5 0.0544329)
(0.188649 -0.5 0.0562194)
(0.214742 -0.5 0.0576598)
(0.243117 -0.5 0.0587003)
(0.273711 -0.5 0.0592943)
(0.306401 -0.5 0.0594065)
(0.340998 -0.5 0.0590159)
(0.377246 -0.5 0.058119)
(0.414829 -0.5 0.0567306)
(0.453377 -0.5 0.0548831)
(0.49248 -0.5 0.0526247)
(0.531705 -0.5 0.0500162)
(0.570613 -0.5 0.0471265)
(0.608782 -0.5 0.0440283)
(0.645819 -0.5 0.0407942)
(0.68138 -0.5 0.0374927)
(0.715179 -0.5 0.0341865)
(0.746993 -0.5 0.0309302)
(0.776668 -0.5 0.0277694)
(0.804112 -0.5 0.0247409)
(0.829295 -0.5 0.0218727)
(0.852235 -0.5 0.0191843)
(0.872995 -0.5 0.0166883)
(0.891671 -0.5 0.0143904)
(0.908381 -0.5 0.0122911)
(0.92326 -0.5 0.0103866)
(0.936453 -0.5 0.00866948)
(0.948106 -0.5 0.00713005)
(0.958364 -0.5 0.00575679)
(0.967368 -0.5 0.00453723)
(0.97525 -0.5 0.00345847)
(0.982134 -0.5 0.00250758)
(0.988136 -0.5 0.00167202)
(0.993359 -0.5 0.000939786)
(0.997895 -0.5 0.000299845)
(1.00219 -0.5 2.06187e-06)
(1.00711 -0.5 2.02667e-06)
(1.01319 -0.5 1.9954e-06)
(1.02072 -0.5 1.97012e-06)
(1.03002 -0.5 1.94969e-06)
(1.04153 -0.5 1.93316e-06)
(1.05576 -0.5 1.9198e-06)
(1.07337 -0.5 1.909e-06)
(1.09514 -0.5 1.90027e-06)
(1.12206 -0.5 1.89321e-06)
(1.15537 -0.5 1.8875e-06)
(1.19656 -0.5 1.88289e-06)
(1.2475 -0.5 1.87915e-06)
(1.3105 -0.5 1.87614e-06)
(1.38842 -0.5 1.8737e-06)
(1.48479 -0.5 1.87172e-06)
(1.60398 -0.5 1.87013e-06)
(1.75139 -0.5 1.86884e-06)
(1.93371 -0.5 1.8678e-06)
(2.1592 -0.5 1.86695e-06)
(2.43808 -0.5 1.86627e-06)
(2.78299 -0.5 1.86572e-06)
(3.20957 -0.5 1.86527e-06)
(3.73716 -0.5 1.86491e-06)
(4.38968 -0.5 1.86462e-06)
(5.1967 -0.5 1.86439e-06)
(6.19481 -0.5 1.8642e-06)
(7.42925 -0.5 1.86404e-06)
(8.95599 -0.5 1.86392e-06)
(10.8442 -0.5 1.86382e-06)
(13.1796 -0.5 1.86374e-06)
(16.0679 -0.5 1.86367e-06)
(19.6401 -0.5 1.86362e-06)
(24.0582 -0.5 1.86357e-06)
(29.5224 -0.5 1.86354e-06)
(36.2804 -0.5 1.86351e-06)
(44.6387 -0.5 1.86349e-06)
(54.976 -0.5 1.86347e-06)
(67.761 -0.5 1.86346e-06)
(83.5733 -0.5 1.86344e-06)
(103.13 -0.5 1.86343e-06)
(127.317 -0.5 1.86343e-06)
(157.231 -0.5 1.86342e-06)
(194.228 -0.5 1.86341e-06)
(239.986 -0.5 1.86341e-06)
(296.578 -0.5 1.86341e-06)
(366.57 -0.5 1.8634e-06)
(453.135 -0.5 1.8634e-06)
(453.135 -0.5 -5.9482e-06)
(366.57 -0.5 -5.94821e-06)
(296.578 -0.5 -5.94823e-06)
(239.986 -0.5 -5.94825e-06)
(194.228 -0.5 -5.94827e-06)
(157.231 -0.5 -5.9483e-06)
(127.317 -0.5 -5.94834e-06)
(103.13 -0.5 -5.94839e-06)
(83.5733 -0.5 -5.94845e-06)
(67.761 -0.5 -5.94853e-06)
(54.976 -0.5 -5.94862e-06)
(44.6387 -0.5 -5.94873e-06)
(36.2804 -0.5 -5.94887e-06)
(29.5224 -0.5 -5.94905e-06)
(24.0582 -0.5 -5.94926e-06)
(19.6401 -0.5 -5.94953e-06)
(16.0679 -0.5 -5.94986e-06)
(13.1796 -0.5 -5.95026e-06)
(10.8442 -0.5 -5.95076e-06)
(8.95597 -0.5 -5.95139e-06)
(7.42923 -0.5 -5.95216e-06)
(6.19479 -0.5 -5.95311e-06)
(5.19668 -0.5 -5.95428e-06)
(4.38966 -0.5 -5.95574e-06)
(3.73714 -0.5 -5.95754e-06)
(3.20955 -0.5 -5.95976e-06)
(2.78297 -0.5 -5.96252e-06)
(2.43806 -0.5 -5.96592e-06)
(2.15918 -0.5 -5.97013e-06)
(1.93369 -0.5 -5.97534e-06)
(1.75138 -0.5 -5.98178e-06)
(1.60396 -0.5 -5.98975e-06)
(1.48477 -0.5 -5.9996e-06)
(1.3884 -0.5 -6.01179e-06)
(1.31048 -0.5 -6.02686e-06)
(1.24748 -0.5 -6.04551e-06)
(1.19654 -0.5 -6.06856e-06)
(1.15535 -0.5 -6.09708e-06)
(1.12205 -0.5 -6.13236e-06)
(1.09512 -0.5 -6.17599e-06)
(1.07335 -0.5 -6.22995e-06)
(1.05575 -0.5 -6.2967e-06)
(1.04151 -0.5 -6.37927e-06)
(1.03001 -0.5 -6.4814e-06)
(1.0207 -0.5 -6.60773e-06)
(1.01318 -0.5 -6.764e-06)
(1.0071 -0.5 -6.95731e-06)
(1.00218 -0.5 -7.18139e-06)
(0.997904 -0.5 -0.000303901)
(0.993368 -0.5 -0.000943666)
(0.988145 -0.5 -0.00167575)
(0.982144 -0.5 -0.00251119)
(0.97526 -0.5 -0.00346197)
(0.967377 -0.5 -0.00454065)
(0.958374 -0.5 -0.00576015)
(0.948116 -0.5 -0.00713337)
(0.936463 -0.5 -0.00867278)
(0.92327 -0.5 -0.0103899)
(0.90839 -0.5 -0.0122944)
(0.89168 -0.5 -0.0143937)
(0.873004 -0.5 -0.0166916)
(0.852244 -0.5 -0.0191878)
(0.829303 -0.5 -0.0218761)
(0.80412 -0.5 -0.0247445)
(0.776675 -0.5 -0.027773)
(0.747 -0.5 -0.0309339)
(0.715185 -0.5 -0.0341904)
(0.681385 -0.5 -0.0374966)
(0.645823 -0.5 -0.0407982)
(0.608785 -0.5 -0.0440324)
(0.570615 -0.5 -0.0471307)
(0.531705 -0.5 -0.0500205)
(0.49248 -0.5 -0.052629)
(0.453376 -0.5 -0.0548874)
(0.414827 -0.5 -0.056735)
(0.377244 -0.5 -0.0581235)
(0.340994 -0.5 -0.0590203)
(0.306396 -0.5 -0.0594108)
(0.273705 -0.5 -0.0592986)
(0.243111 -0.5 -0.0587045)
(0.214735 -0.5 -0.0576638)
(0.188641 -0.5 -0.0562232)
(0.164833 -0.5 -0.0544366)
(0.143271 -0.5 -0.0523613)
(0.123876 -0.5 -0.0500549)
(0.106539 -0.5 -0.0475723)
(0.0911341 -0.5 -0.0449641)
(0.0775201 -0.5 -0.0422752)
(0.065552 -0.5 -0.0395442)
(0.0550838 -0.5 -0.0368037)
(0.0459733 -0.5 -0.0340806)
(0.0380846 -0.5 -0.0313965)
(0.0312903 -0.5 -0.0287687)
(0.0254726 -0.5 -0.0262113)
(0.0205236 -0.5 -0.0237355)
(0.0163452 -0.5 -0.0213511)
(0.0128487 -0.5 -0.0190668)
(0.00995343 -0.5 -0.0168914)
(0.00758588 -0.5 -0.0148336)
(0.00567807 -0.5 -0.0129024)
(0.00416649 -0.5 -0.0111062)
(0.00299128 -0.5 -0.00945249)
(0.00209619 -0.5 -0.00794592)
(0.00142921 -0.5 -0.0065879)
(0.000943482 -0.5 -0.00537588)
(0.000598256 -0.5 -0.00430363)
(0.000359384 -0.5 -0.00336196)
(0.000199246 -0.5 -0.00253982)
(9.61853e-05 -0.5 -0.00182526)
(3.36616e-05 -0.5 -0.00120626)
(-6.86344e-07 -0.5 -0.000671329)
(-1.58623e-05 -0.5 -0.000210079)
(-1.58623e-05 -0.5 0.000210079)
(-6.86344e-07 -0.5 0.000671329)
(3.36616e-05 -0.5 0.00120626)
(9.61853e-05 -0.5 0.00182526)
(0.000199246 -0.5 0.00253982)
(0.000359384 -0.5 0.00336196)
(0.000598256 -0.5 0.00430363)
(0.000943482 -0.5 0.00537588)
(0.00142921 -0.5 0.0065879)
(0.00209619 -0.5 0.00794592)
(0.00299128 -0.5 0.00945249)
(0.00416649 -0.5 0.0111062)
(0.00567807 -0.5 0.0129024)
(0.00758588 -0.5 0.0148336)
(0.00995343 -0.5 0.0168914)
(0.0128487 -0.5 0.0190668)
(0.0163452 -0.5 0.0213511)
(0.0205236 -0.5 0.0237355)
(0.0254726 -0.5 0.0262113)
(0.0312903 -0.5 0.0287687)
(0.0380846 -0.5 0.0313965)
(0.0459733 -0.5 0.0340806)
(0.0550838 -0.5 0.0368037)
(0.065552 -0.5 0.0395442)
(0.0775201 -0.5 0.0422752)
(0.0911341 -0.5 0.0449641)
(0.106539 -0.5 0.0475723)
(0.123876 -0.5 0.0500549)
(0.143271 -0.5 0.0523613)
(0.164833 -0.5 0.0544366)
(0.188641 -0.5 0.0562232)
(0.214735 -0.5 0.0576638)
(0.243111 -0.5 0.0587045)
(0.273705 -0.5 0.0592986)
(0.306396 -0.5 0.0594108)
(0.340994 -0.5 0.0590203)
(0.377244 -0.5 0.0581235)
(0.414827 -0.5 0.056735)
(0.453376 -0.5 0.0548874)
(0.49248 -0.5 0.052629)
(0.531705 -0.5 0.0500205)
(0.570615 -0.5 0.0471307)
(0.608785 -0.5 0.0440324)
(0.645823 -0.5 0.0407982)
(0.681385 -0.5 0.0374966)
(0.715185 -0.5 0.0341904)
(0.747 -0.5 0.0309339)
(0.776675 -0.5 0.027773)
(0.80412 -0.5 0.0247445)
(0.829303 -0.5 0.0218761)
(0.852244 -0.5 0.0191878)
(0.873004 -0.5 0.0166916)
(0.89168 -0.5 0.0143937)
(0.90839 -0.5 0.0122944)
(0.92327 -0.5 0.0103899)
(0.936463 -0.5 0.00867278)
(0.948116 -0.5 0.00713337)
(0.958374 -0.5 0.00576015)
(0.967377 -0.5 0.00454065)
(0.97526 -0.5 0.00346197)
(0.982144 -0.5 0.00251119)
(0.988145 -0.5 0.00167575)
(0.993368 -0.5 0.000943666)
(0.997904 -0.5 0.000303956)
(1.00218 -0.5 7.28847e-06)
(1.0071 -0.5 7.06436e-06)
(1.01318 -0.5 6.87104e-06)
(1.0207 -0.5 6.71477e-06)
(1.03001 -0.5 6.58844e-06)
(1.04151 -0.5 6.48631e-06)
(1.05575 -0.5 6.40375e-06)
(1.07335 -0.5 6.337e-06)
(1.09512 -0.5 6.28303e-06)
(1.12205 -0.5 6.2394e-06)
(1.15535 -0.5 6.20413e-06)
(1.19654 -0.5 6.17561e-06)
(1.24748 -0.5 6.15255e-06)
(1.31048 -0.5 6.13391e-06)
(1.3884 -0.5 6.11883e-06)
(1.48477 -0.5 6.10665e-06)
(1.60396 -0.5 6.09679e-06)
(1.75138 -0.5 6.08883e-06)
(1.93369 -0.5 6.08239e-06)
(2.15918 -0.5 6.07718e-06)
(2.43806 -0.5 6.07297e-06)
(2.78297 -0.5 6.06956e-06)
(3.20955 -0.5 6.06681e-06)
(3.73714 -0.5 6.06458e-06)
(4.38966 -0.5 6.06278e-06)
(5.19668 -0.5 6.06133e-06)
(6.19479 -0.5 6.06015e-06)
(7.42923 -0.5 6.0592e-06)
(8.95597 -0.5 6.05843e-06)
(10.8442 -0.5 6.05781e-06)
(13.1796 -0.5 6.05731e-06)
(16.0679 -0.5 6.0569e-06)
(19.6401 -0.5 6.05657e-06)
(24.0582 -0.5 6.0563e-06)
(29.5224 -0.5 6.05609e-06)
(36.2804 -0.5 6.05592e-06)
(44.6387 -0.5 6.05578e-06)
(54.976 -0.5 6.05566e-06)
(67.761 -0.5 6.05557e-06)
(83.5733 -0.5 6.0555e-06)
(103.13 -0.5 6.05544e-06)
(127.317 -0.5 6.05539e-06)
(157.231 -0.5 6.05535e-06)
(194.228 -0.5 6.05532e-06)
(239.986 -0.5 6.05529e-06)
(296.578 -0.5 6.05527e-06)
(366.57 -0.5 6.05525e-06)
(453.135 -0.5 6.05524e-06)
(453.135 -0.5 -1.1465e-05)
(366.57 -0.5 -1.14651e-05)
(296.578 -0.5 -1.14651e-05)
(239.986 -0.5 -1.14652e-05)
(194.228 -0.5 -1.14653e-05)
(157.231 -0.5 -1.14654e-05)
(127.317 -0.5 -1.14655e-05)
(103.13 -0.5 -1.14656e-05)
(83.5733 -0.5 -1.14658e-05)
(67.761 -0.5 -1.14661e-05)
(54.9759 -0.5 -1.14664e-05)
(44.6386 -0.5 -1.14667e-05)
(36.2804 -0.5 -1.14672e-05)
(29.5224 -0.5 -1.14677e-05)
(24.0582 -0.5 -1.14684e-05)
(19.6401 -0.5 -1.14692e-05)
(16.0679 -0.5 -1.14703e-05)
(13.1795 -0.5 -1.14716e-05)
(10.8442 -0.5 -1.14732e-05)
(8.95595 -0.5 -1.14751e-05)
(7.42921 -0.5 -1.14776e-05)
(6.19477 -0.5 -1.14806e-05)
(5.19666 -0.5 -1.14843e-05)
(4.38964 -0.5 -1.1489e-05)
(3.73713 -0.5 -1.14947e-05)
(3.20954 -0.5 -1.15018e-05)
(2.78295 -0.5 -1.15105e-05)
(2.43804 -0.5 -1.15213e-05)
(2.15916 -0.5 -1.15347e-05)
(1.93367 -0.5 -1.15512e-05)
(1.75136 -0.5 -1.15717e-05)
(1.60394 -0.5 -1.1597e-05)
(1.48475 -0.5 -1.16283e-05)
(1.38838 -0.5 -1.1667e-05)
(1.31046 -0.5 -1.17149e-05)
(1.24746 -0.5 -1.17741e-05)
(1.19652 -0.5 -1.18473e-05)
(1.15533 -0.5 -1.19379e-05)
(1.12203 -0.5 -1.205e-05)
(1.0951 -0.5 -1.21886e-05)
(1.07333 -0.5 -1.236e-05)
(1.05573 -0.5 -1.25721e-05)
(1.0415 -0.5 -1.28344e-05)
(1.02999 -0.5 -1.31589e-05)
(1.02069 -0.5 -1.35603e-05)
(1.01317 -0.5 -1.40569e-05)
(1.00709 -0.5 -1.46712e-05)
(1.00217 -0.5 -1.53936e-05)
(0.99791 -0.5 -0.000311359)
(0.993375 -0.5 -0.000950672)
(0.988153 -0.5 -0.00168239)
(0.982152 -0.5 -0.00251751)
(0.975268 -0.5 -0.00346802)
(0.967386 -0.5 -0.00454648)
(0.958382 -0.5 -0.00576579)
(0.948124 -0.5 -0.00713885)
(0.936472 -0.5 -0.00867815)
(0.923279 -0.5 -0.0103951)
(0.908399 -0.5 -0.0122996)
(0.891689 -0.5 -0.0143989)
(0.873013 -0.5 -0.0166968)
(0.852252 -0.5 -0.0191929)
(0.82931 -0.5 -0.0218813)
(0.804127 -0.5 -0.0247497)
(0.776682 -0.5 -0.0277783)
(0.747006 -0.5 -0.0309392)
(0.71519 -0.5 -0.0341957)
(0.68139 -0.5 -0.0375021)
(0.645827 -0.5 -0.0408037)
(0.608788 -0.5 -0.044038)
(0.570617 -0.5 -0.0471364)
(0.531706 -0.5 -0.0500262)
(0.49248 -0.5 -0.0526349)
(0.453375 -0.5 -0.0548933)
(0.414826 -0.5 -0.0567409)
(0.377241 -0.5 -0.0581294)
(0.340991 -0.5 -0.0590262)
(0.306392 -0.5 -0.0594167)
(0.2737 -0.5 -0.0593044)
(0.243105 -0.5 -0.0587102)
(0.214729 -0.5 -0.0576695)
(0.188634 -0.5 -0.0562288)
(0.164826 -0.5 -0.054442)
(0.143263 -0.5 -0.0523665)
(0.123868 -0.5 -0.05006)
(0.106531 -0.5 -0.0475772)
(0.091125 -0.5 -0.0449689)
(0.0775109 -0.5 -0.0422798)
(0.0655427 -0.5 -0.0395486)
(0.0550744 -0.5 -0.036808)
(0.0459639 -0.5 -0.0340848)
(0.0380752 -0.5 -0.0314005)
(0.031281 -0.5 -0.0287727)
(0.0254633 -0.5 -0.0262152)
(0.0205143 -0.5 -0.0237394)
(0.016336 -0.5 -0.021355)
(0.0128393 -0.5 -0.0190708)
(0.00994393 -0.5 -0.0168954)
(0.00757609 -0.5 -0.0148376)
(0.00566786 -0.5 -0.0129063)
(0.0041557 -0.5 -0.0111102)
(0.00297973 -0.5 -0.0094564)
(0.00208368 -0.5 -0.00794973)
(0.00141554 -0.5 -0.00659155)
(0.00092843 -0.5 -0.00537931)
(0.000581589 -0.5 -0.00430678)
(0.000340841 -0.5 -0.00336479)
(0.000178535 -0.5 -0.00254226)
(7.29718e-05 -0.5 -0.00182726)
(7.55857e-06 -0.5 -0.00120778)
(-3.01285e-05 -0.5 -0.000672319)
(-4.89381e-05 -0.5 -0.000210499)
(-4.89381e-05 -0.5 0.000210499)
(-3.01285e-05 -0.5 0.000672319)
(7.55857e-06 -0.5 0.00120778)
(7.29718e-05 -0.5 0.00182726)
(0.000178535 -0.5 0.00254226)
(0.000340841 -0.5 0.00336479)
(0.000581589 -0.5 0.00430678)
(0.00092843 -0.5 0.00537931)
(0.00141554 -0.5 0.00659155)
(0.00208368 -0.5 0.00794973)
(0.00297973 -0.5 0.0094564)
(0.0041557 -0.5 0.0111102)
(0.00566786 -0.5 0.0129063)
(0.00757609 -0.5 0.0148376)
(0.00994393 -0.5 0.0168954)
(0.0128393 -0.5 0.0190708)
(0.016336 -0.5 0.021355)
(0.0205143 -0.5 0.0237394)
(0.0254633 -0.5 0.0262152)
(0.031281 -0.5 0.0287727)
(0.0380752 -0.5 0.0314005)
(0.0459639 -0.5 0.0340848)
(0.0550744 -0.5 0.036808)
(0.0655427 -0.5 0.0395486)
(0.0775109 -0.5 0.0422798)
(0.091125 -0.5 0.0449689)
(0.106531 -0.5 0.0475772)
(0.123868 -0.5 0.05006)
(0.143263 -0.5 0.0523665)
(0.164826 -0.5 0.054442)
(0.188634 -0.5 0.0562288)
(0.214729 -0.5 0.0576695)
(0.243105 -0.5 0.0587102)
(0.2737 -0.5 0.0593044)
(0.306392 -0.5 0.0594167)
(0.340991 -0.5 0.0590262)
(0.377241 -0.5 0.0581294)
(0.414826 -0.5 0.0567409)
(0.453375 -0.5 0.0548933)
(0.49248 -0.5 0.0526349)
(0.531706 -0.5 0.0500262)
(0.570617 -0.5 0.0471364)
(0.608788 -0.5 0.044038)
(0.645827 -0.5 0.0408037)
(0.68139 -0.5 0.0375021)
(0.71519 -0.5 0.0341957)
(0.747006 -0.5 0.0309392)
(0.776682 -0.5 0.0277783)
(0.804127 -0.5 0.0247497)
(0.82931 -0.5 0.0218813)
(0.852252 -0.5 0.0191929)
(0.873013 -0.5 0.0166968)
(0.891689 -0.5 0.0143989)
(0.908399 -0.5 0.0122996)
(0.923279 -0.5 0.0103951)
(0.936472 -0.5 0.00867815)
(0.948124 -0.5 0.00713885)
(0.958382 -0.5 0.00576579)
(0.967386 -0.5 0.00454648)
(0.975268 -0.5 0.00346802)
(0.982152 -0.5 0.00251751)
(0.988153 -0.5 0.00168239)
(0.993375 -0.5 0.000950672)
(0.99791 -0.5 0.000311413)
(1.00217 -0.5 1.55008e-05)
(1.00709 -0.5 1.47782e-05)
(1.01317 -0.5 1.41639e-05)
(1.02069 -0.5 1.36674e-05)
(1.02999 -0.5 1.32659e-05)
(1.0415 -0.5 1.29415e-05)
(1.05573 -0.5 1.26791e-05)
(1.07333 -0.5 1.24671e-05)
(1.0951 -0.5 1.22956e-05)
(1.12203 -0.5 1.2157e-05)
(1.15533 -0.5 1.2045e-05)
(1.19652 -0.5 1.19544e-05)
(1.24746 -0.5 1.18811e-05)
(1.31046 -0.5 1.18219e-05)
(1.38838 -0.5 1.1774e-05)
(1.48475 -0.5 1.17353e-05)
(1.60394 -0.5 1.1704e-05)
(1.75136 -0.5 1.16787e-05)
(1.93367 -0.5 1.16583e-05)
(2.15916 -0.5 1.16417e-05)
(2.43804 -0.5 1.16284e-05)
(2.78295 -0.5 1.16175e-05)
(3.20954 -0.5 1.16088e-05)
(3.73713 -0.5 1.16017e-05)
(4.38964 -0.5 1.1596e-05)
(5.19666 -0.5 1.15914e-05)
(6.19477 -0.5 1.15877e-05)
(7.42921 -0.5 1.15846e-05)
(8.95595 -0.5 1.15822e-05)
(10.8442 -0.5 1.15802e-05)
(13.1795 -0.5 1.15786e-05)
(16.0679 -0.5 1.15773e-05)
(19.6401 -0.5 1.15763e-05)
(24.0582 -0.5 1.15754e-05)
(29.5224 -0.5 1.15748e-05)
(36.2804 -0.5 1.15742e-05)
(44.6386 -0.5 1.15738e-05)
(54.9759 -0.5 1.15734e-05)
(67.761 -0.5 1.15731e-05)
(83.5733 -0.5 1.15729e-05)
(103.13 -0.5 1.15727e-05)
(127.317 -0.5 1.15725e-05)
(157.231 -0.5 1.15724e-05)
(194.228 -0.5 1.15723e-05)
(239.986 -0.5 1.15722e-05)
(296.578 -0.5 1.15722e-05)
(366.57 -0.5 1.15721e-05)
(453.135 -0.5 1.15721e-05)
(453.135 -0.5 -1.87256e-05)
(366.57 -0.5 -1.87257e-05)
(296.578 -0.5 -1.87258e-05)
(239.986 -0.5 -1.8726e-05)
(194.228 -0.5 -1.87262e-05)
(157.231 -0.5 -1.87264e-05)
(127.317 -0.5 -1.87267e-05)
(103.13 -0.5 -1.87271e-05)
(83.5732 -0.5 -1.87275e-05)
(67.7609 -0.5 -1.87281e-05)
(54.9759 -0.5 -1.87288e-05)
(44.6386 -0.5 -1.87296e-05)
(36.2804 -0.5 -1.87307e-05)
(29.5224 -0.5 -1.8732e-05)
(24.0582 -0.5 -1.87336e-05)
(19.6401 -0.5 -1.87355e-05)
(16.0679 -0.5 -1.8738e-05)
(13.1795 -0.5 -1.8741e-05)
(10.8442 -0.5 -1.87448e-05)
(8.95593 -0.5 -1.87494e-05)
(7.42919 -0.5 -1.87551e-05)
(6.19475 -0.5 -1.87622e-05)
(5.19664 -0.5 -1.8771e-05)
(4.38962 -0.5 -1.87818e-05)
(3.73711 -0.5 -1.87952e-05)
(3.20952 -0.5 -1.88118e-05)
(2.78293 -0.5 -1.88324e-05)
(2.43802 -0.5 -1.88577e-05)
(2.15914 -0.5 -1.88891e-05)
(1.93366 -0.5 -1.89279e-05)
(1.75134 -0.5 -1.89759e-05)
(1.60393 -0.5 -1.90353e-05)
(1.48474 -0.5 -1.91088e-05)
(1.38837 -0.5 -1.91996e-05)
(1.31045 -0.5 -1.93119e-05)
(1.24744 -0.5 -1.94509e-05)
(1.1965 -0.5 -1.96228e-05)
(1.15532 -0.5 -1.98354e-05)
(1.12201 -0.5 -2.00983e-05)
(1.09509 -0.5 -2.04236e-05)
(1.07332 -0.5 -2.0826e-05)
(1.05572 -0.5 -2.13237e-05)
(1.04149 -0.5 -2.19394e-05)
(1.02998 -0.5 -2.27011e-05)
(1.02068 -0.5 -2.36433e-05)
(1.01316 -0.5 -2.48089e-05)
(1.00708 -0.5 -2.62508e-05)
(1.00217 -0.5 -2.79617e-05)
(0.997916 -0.5 -0.000323412)
(0.993381 -0.5 -0.000961935)
(0.98816 -0.5 -0.00169298)
(0.982159 -0.5 -0.00252752)
(0.975275 -0.5 -0.00347753)
(0.967393 -0.5 -0.00455555)
(0.95839 -0.5 -0.0057745)
(0.948132 -0.5 -0.00714725)
(0.93648 -0.5 -0.00868629)
(0.923287 -0.5 -0.0104031)
(0.908407 -0.5 -0.0123074)
(0.891697 -0.5 -0.0144065)
(0.87302 -0.5 -0.0167043)
(0.852259 -0.5 -0.0192004)
(0.829318 -0.5 -0.0218887)
(0.804134 -0.5 -0.0247571)
(0.776688 -0.5 -0.0277857)
(0.747011 -0.5 -0.0309467)
(0.715195 -0.5 -0.0342032)
(0.681394 -0.5 -0.0375096)
(0.64583 -0.5 -0.0408113)
(0.60879 -0.5 -0.0440457)
(0.570619 -0.5 -0.0471441)
(0.531708 -0.5 -0.050034)
(0.49248 -0.5 -0.0526427)
(0.453375 -0.5 -0.0549012)
(0.414824 -0.5 -0.0567489)
(0.377238 -0.5 -0.0581374)
(0.340987 -0.5 -0.0590342)
(0.306388 -0.5 -0.0594247)
(0.273695 -0.5 -0.0593124)
(0.243099 -0.5 -0.0587181)
(0.214722 -0.5 -0.0576773)
(0.188627 -0.5 -0.0562365)
(0.164818 -0.5 -0.0544497)
(0.143255 -0.5 -0.0523741)
(0.123859 -0.5 -0.0500675)
(0.106522 -0.5 -0.0475847)
(0.0911164 -0.5 -0.0449763)
(0.0775021 -0.5 -0.0422872)
(0.0655337 -0.5 -0.039556)
(0.0550654 -0.5 -0.0368154)
(0.0459548 -0.5 -0.0340922)
(0.038066 -0.5 -0.0314081)
(0.0312717 -0.5 -0.0287804)
(0.0254538 -0.5 -0.0262231)
(0.0205045 -0.5 -0.0237475)
(0.0163257 -0.5 -0.0213633)
(0.0128285 -0.5 -0.0190794)
(0.00993233 -0.5 -0.0169042)
(0.00756345 -0.5 -0.0148467)
(0.0056539 -0.5 -0.0129155)
(0.00414013 -0.5 -0.0111194)
(0.00296222 -0.5 -0.00946552)
(0.00206392 -0.5 -0.0079586)
(0.00139318 -0.5 -0.00660004)
(0.000903112 -0.5 -0.00538728)
(0.000552908 -0.5 -0.00431412)
(0.000308341 -0.5 -0.0033714)
(0.000141685 -0.5 -0.00254807)
(3.11488e-05 -0.5 -0.00183221)
(-3.99712e-05 -0.5 -0.00121183)
(-8.42316e-05 -0.5 -0.000675477)
(-0.000109711 -0.5 -0.000212528)
(-0.000109711 -0.5 0.000212528)
(-8.42316e-05 -0.5 0.000675477)
(-3.99712e-05 -0.5 0.00121183)
(3.11488e-05 -0.5 0.00183221)
(0.000141685 -0.5 0.00254807)
(0.000308341 -0.5 0.0033714)
(0.000552908 -0.5 0.00431412)
(0.000903112 -0.5 0.00538728)
(0.00139318 -0.5 0.00660004)
(0.00206392 -0.5 0.0079586)
(0.00296222 -0.5 0.00946552)
(0.00414013 -0.5 0.0111194)
(0.0056539 -0.5 0.0129155)
(0.00756345 -0.5 0.0148467)
(0.00993233 -0.5 0.0169042)
(0.0128285 -0.5 0.0190794)
(0.0163257 -0.5 0.0213633)
(0.0205045 -0.5 0.0237475)
(0.0254538 -0.5 0.0262231)
(0.0312717 -0.5 0.0287804)
(0.038066 -0.5 0.0314081)
(0.0459548 -0.5 0.0340922)
(0.0550654 -0.5 0.0368154)
(0.0655337 -0.5 0.039556)
(0.0775021 -0.5 0.0422872)
(0.0911164 -0.5 0.0449763)
(0.106522 -0.5 0.0475847)
(0.123859 -0.5 0.0500675)
(0.143255 -0.5 0.0523741)
(0.164818 -0.5 0.0544497)
(0.188627 -0.5 0.0562365)
(0.214722 -0.5 0.0576773)
(0.243099 -0.5 0.0587181)
(0.273695 -0.5 0.0593124)
(0.306388 -0.5 0.0594247)
(0.340987 -0.5 0.0590342)
(0.377238 -0.5 0.0581374)
(0.414824 -0.5 0.0567489)
(0.453375 -0.5 0.0549012)
(0.49248 -0.5 0.0526427)
(0.531708 -0.5 0.050034)
(0.570619 -0.5 0.0471441)
(0.60879 -0.5 0.0440457)
(0.64583 -0.5 0.0408113)
(0.681394 -0.5 0.0375096)
(0.715195 -0.5 0.0342032)
(0.747011 -0.5 0.0309467)
(0.776688 -0.5 0.0277857)
(0.804134 -0.5 0.0247571)
(0.829318 -0.5 0.0218887)
(0.852259 -0.5 0.0192004)
(0.87302 -0.5 0.0167043)
(0.891697 -0.5 0.0144065)
(0.908407 -0.5 0.0123074)
(0.923287 -0.5 0.0104031)
(0.93648 -0.5 0.00868629)
(0.948132 -0.5 0.00714725)
(0.95839 -0.5 0.0057745)
(0.967393 -0.5 0.00455555)
(0.975275 -0.5 0.00347753)
(0.982159 -0.5 0.00252752)
(0.98816 -0.5 0.00169298)
(0.993381 -0.5 0.000961935)
(0.997916 -0.5 0.000323466)
(1.00217 -0.5 2.80689e-05)
(1.00708 -0.5 2.63579e-05)
(1.01316 -0.5 2.49159e-05)
(1.02068 -0.5 2.37503e-05)
(1.02998 -0.5 2.28081e-05)
(1.04149 -0.5 2.20465e-05)
(1.05572 -0.5 2.14308e-05)
(1.07332 -0.5 2.0933e-05)
(1.09509 -0.5 2.05307e-05)
(1.12201 -0.5 2.02054e-05)
(1.15532 -0.5 1.99424e-05)
(1.1965 -0.5 1.97298e-05)
(1.24744 -0.5 1.95579e-05)
(1.31045 -0.5 1.9419e-05)
(1.38837 -0.5 1.93066e-05)
(1.48474 -0.5 1.92158e-05)
(1.60393 -0.5 1.91424e-05)
(1.75134 -0.5 1.9083e-05)
(1.93366 -0.5 1.9035e-05)
(2.15914 -0.5 1.89962e-05)
(2.43802 -0.5 1.89648e-05)
(2.78293 -0.5 1.89394e-05)
(3.20952 -0.5 1.89189e-05)
(3.73711 -0.5 1.89023e-05)
(4.38962 -0.5 1.88889e-05)
(5.19664 -0.5 1.8878e-05)
(6.19475 -0.5 1.88693e-05)
(7.42919 -0.5 1.88622e-05)
(8.95593 -0.5 1.88564e-05)
(10.8442 -0.5 1.88518e-05)
(13.1795 -0.5 1.88481e-05)
(16.0679 -0.5 1.8845e-05)
(19.6401 -0.5 1.88426e-05)
(24.0582 -0.5 1.88406e-05)
(29.5224 -0.5 1.8839e-05)
(36.2804 -0.5 1.88377e-05)
(44.6386 -0.5 1.88367e-05)
(54.9759 -0.5 1.88358e-05)
(67.7609 -0.5 1.88351e-05)
(83.5732 -0.5 1.88346e-05)
(103.13 -0.5 1.88341e-05)
(127.317 -0.5 1.88338e-05)
(157.231 -0.5 1.88335e-05)
(194.228 -0.5 1.88332e-05)
(239.986 -0.5 1.8833e-05)
(296.578 -0.5 1.88329e-05)
(366.57 -0.5 1.88328e-05)
(453.135 -0.5 1.88327e-05)
(453.135 -0.5 -2.82812e-05)
(366.57 -0.5 -2.82814e-05)
(296.578 -0.5 -2.82817e-05)
(239.986 -0.5 -2.8282e-05)
(194.228 -0.5 -2.82823e-05)
(157.231 -0.5 -2.82828e-05)
(127.317 -0.5 -2.82834e-05)
(103.13 -0.5 -2.82841e-05)
(83.5732 -0.5 -2.8285e-05)
(67.7609 -0.5 -2.82861e-05)
(54.9759 -0.5 -2.82875e-05)
(44.6386 -0.5 -2.82892e-05)
(36.2804 -0.5 -2.82913e-05)
(29.5223 -0.5 -2.82939e-05)
(24.0581 -0.5 -2.82971e-05)
(19.6401 -0.5 -2.83011e-05)
(16.0678 -0.5 -2.8306e-05)
(13.1795 -0.5 -2.83121e-05)
(10.8442 -0.5 -2.83196e-05)
(8.95591 -0.5 -2.83289e-05)
(7.42917 -0.5 -2.83404e-05)
(6.19473 -0.5 -2.83546e-05)
(5.19662 -0.5 -2.83722e-05)
(4.3896 -0.5 -2.83939e-05)
(3.73709 -0.5 -2.84208e-05)
(3.2095 -0.5 -2.8454e-05)
(2.78292 -0.5 -2.84952e-05)
(2.438 -0.5 -2.8546e-05)
(2.15913 -0.5 -2.8609e-05)
(1.93364 -0.5 -2.86868e-05)
(1.75132 -0.5 -2.8783e-05)
(1.60391 -0.5 -2.89021e-05)
(1.48472 -0.5 -2.90493e-05)
(1.38835 -0.5 -2.92314e-05)
(1.31043 -0.5 -2.94566e-05)
(1.24743 -0.5 -2.97352e-05)
(1.19649 -0.5 -3.00798e-05)
(1.1553 -0.5 -3.05061e-05)
(1.122 -0.5 -3.10333e-05)
(1.09508 -0.5 -3.16856e-05)
(1.07331 -0.5 -3.24924e-05)
(1.05571 -0.5 -3.34904e-05)
(1.04148 -0.5 -3.4725e-05)
(1.02997 -0.5 -3.62523e-05)
(1.02067 -0.5 -3.81417e-05)
(1.01315 -0.5 -4.0479e-05)
(1.00707 -0.5 -4.33703e-05)
(1.00216 -0.5 -4.68288e-05)
(0.997922 -0.5 -0.000341946)
(0.993387 -0.5 -0.000979158)
(0.988166 -0.5 -0.00170907)
(0.982166 -0.5 -0.00254263)
(0.975282 -0.5 -0.00349179)
(0.967401 -0.5 -0.00456909)
(0.958398 -0.5 -0.0057874)
(0.94814 -0.5 -0.00715962)
(0.936487 -0.5 -0.00869821)
(0.923295 -0.5 -0.0104146)
(0.908415 -0.5 -0.0123186)
(0.891705 -0.5 -0.0144175)
(0.873028 -0.5 -0.0167151)
(0.852267 -0.5 -0.019211)
(0.829325 -0.5 -0.0218992)
(0.804141 -0.5 -0.0247675)
(0.776694 -0.5 -0.0277961)
(0.747017 -0.5 -0.030957)
(0.7152 -0.5 -0.0342135)
(0.681399 -0.5 -0.0375199)
(0.645834 -0.5 -0.0408216)
(0.608793 -0.5 -0.0440561)
(0.570621 -0.5 -0.0471546)
(0.531709 -0.5 -0.0500446)
(0.492481 -0.5 -0.0526533)
(0.453374 -0.5 -0.0549119)
(0.414823 -0.5 -0.0567596)
(0.377236 -0.5 -0.0581481)
(0.340984 -0.5 -0.0590449)
(0.306384 -0.5 -0.0594354)
(0.273691 -0.5 -0.0593232)
(0.243094 -0.5 -0.0587289)
(0.214716 -0.5 -0.0576881)
(0.18862 -0.5 -0.0562473)
(0.164811 -0.5 -0.0544605)
(0.143248 -0.5 -0.0523849)
(0.123851 -0.5 -0.0500783)
(0.106514 -0.5 -0.0475956)
(0.0911079 -0.5 -0.0449873)
(0.0774934 -0.5 -0.0422983)
(0.0655248 -0.5 -0.0395673)
(0.0550562 -0.5 -0.036827)
(0.0459453 -0.5 -0.0341041)
(0.0380562 -0.5 -0.0314203)
(0.0312614 -0.5 -0.0287931)
(0.025443 -0.5 -0.0262362)
(0.0204929 -0.5 -0.0237612)
(0.0163131 -0.5 -0.0213775)
(0.0128146 -0.5 -0.0190941)
(0.00991669 -0.5 -0.0169195)
(0.00754572 -0.5 -0.0148623)
(0.00563361 -0.5 -0.0129315)
(0.00411679 -0.5 -0.0111355)
(0.00293533 -0.5 -0.00948144)
(0.00203294 -0.5 -0.00797414)
(0.00135756 -0.5 -0.00661495)
(0.000862249 -0.5 -0.00540137)
(0.000506129 -0.5 -0.00432719)
(0.000254874 -0.5 -0.00338333)
(8.06214e-05 -0.5 -0.00255879)
(-3.85856e-05 -0.5 -0.00184173)
(-0.000119654 -0.5 -0.00122024)
(-0.000175377 -0.5 -0.000683042)
(-0.000210986 -0.5 -0.000217462)
(-0.000210986 -0.5 0.000217462)
(-0.000175377 -0.5 0.000683042)
(-0.000119654 -0.5 0.00122024)
(-3.85856e-05 -0.5 0.00184173)
(8.06214e-05 -0.5 0.00255879)
(0.000254874 -0.5 0.00338333)
(0.000506129 -0.5 0.00432719)
(0.000862249 -0.5 0.00540137)
(0.00135756 -0.5 0.00661495)
(0.00203294 -0.5 0.00797414)
(0.00293533 -0.5 0.00948144)
(0.00411679 -0.5 0.0111355)
(0.00563361 -0.5 0.0129315)
(0.00754572 -0.5 0.0148623)
(0.00991669 -0.5 0.0169195)
(0.0128146 -0.5 0.0190941)
(0.0163131 -0.5 0.0213775)
(0.0204929 -0.5 0.0237612)
(0.025443 -0.5 0.0262362)
(0.0312614 -0.5 0.0287931)
(0.0380562 -0.5 0.0314203)
(0.0459453 -0.5 0.0341041)
(0.0550562 -0.5 0.036827)
(0.0655248 -0.5 0.0395673)
(0.0774934 -0.5 0.0422983)
(0.0911079 -0.5 0.0449873)
(0.106514 -0.5 0.0475956)
(0.123851 -0.5 0.0500783)
(0.143248 -0.5 0.0523849)
(0.164811 -0.5 0.0544605)
(0.18862 -0.5 0.0562473)
(0.214716 -0.5 0.0576881)
(0.243094 -0.5 0.0587289)
(0.273691 -0.5 0.0593232)
(0.306384 -0.5 0.0594354)
(0.340984 -0.5 0.0590449)
(0.377236 -0.5 0.0581481)
(0.414823 -0.5 0.0567596)
(0.453374 -0.5 0.0549119)
(0.492481 -0.5 0.0526533)
(0.531709 -0.5 0.0500446)
(0.570621 -0.5 0.0471546)
(0.608793 -0.5 0.0440561)
(0.645834 -0.5 0.0408216)
(0.681399 -0.5 0.0375199)
(0.7152 -0.5 0.0342135)
(0.747017 -0.5 0.030957)
(0.776694 -0.5 0.0277961)
(0.804141 -0.5 0.0247675)
(0.829325 -0.5 0.0218992)
(0.852267 -0.5 0.019211)
(0.873028 -0.5 0.0167151)
(0.891705 -0.5 0.0144175)
(0.908415 -0.5 0.0123186)