/*--------------------------------*- C++ -*----------------------------------*\
| =========                 |                                                 |
| \\      /  F ield         | OpenFOAM: The Open Source CFD Toolbox           |
|  \\    /   O peration     | Version:  2112                                  |
|   \\  /    A nd           | Website:  www.openfoam.com                      |
|    \\/     M anipulation  |                                                 |
\*---------------------------------------------------------------------------*/
FoamFile
{
    version     2.0;
    format      ascii;
    arch        "LSB;label=32;scalar=64";
    class       volVectorField;
    location    "1402";
    object      U;
}
// * * * * * * * * * * * * * * * * * * * * * * * * * * * * * * * * * * * * * //

dimensions      [0 1 -1 0 0 0 0];

internalField   nonuniform List<vector> 
14336
(
(50.6874 0 9.02538)
(50.6856 0 9.024)
(50.6851 0 9.02193)
(50.6844 0 9.01882)
(50.6841 0 9.01473)
(50.6838 0 9.0095)
(50.6836 0 9.00292)
(50.6836 0 8.99471)
(50.6836 0 8.98454)
(50.6837 -2.86328e-31 8.97196)
(50.6839 0 8.95644)
(50.6841 0 8.93736)
(50.6844 -1.02194e-30 8.91392)
(50.6844 1.5683e-30 8.88516)
(50.6836 0 8.84988)
(50.6814 3.78625e-30 8.8067)
(50.6775 0 8.75411)
(50.6735 0 8.69059)
(50.6723 0 8.61467)
(50.6769 0 8.52465)
(50.6886 -4.61946e-29 8.41844)
(50.7041 0 8.29321)
(50.7139 1.52299e-28 8.14544)
(50.704 0 7.97148)
(50.6671 5.67361e-28 7.76907)
(50.6122 0 7.53872)
(50.5587 2.11841e-27 7.28333)
(50.5152 0 7.00609)
(50.4708 0 6.70934)
(50.4077 0 6.39587)
(50.3155 0 6.07073)
(50.194 0 5.74118)
(50.0515 -2.29541e-26 5.41593)
(49.9035 -2.99724e-26 5.10403)
(49.7511 3.821e-26 4.81252)
(49.5264 0 4.54314)
(49.054 0 4.29115)
(48.1353 0 4.05095)
(46.7044 -1.0233e-25 3.82488)
(44.8609 0 3.62455)
(42.7831 1.57353e-25 3.46291)
(40.6267 0 3.34392)
(38.4514 0 3.26016)
(36.2709 0 3.19645)
(34.0469 0 3.13091)
(31.6234 0 3.02811)
(28.4203 -8.42561e-24 2.82874)
(21.9875 0 2.45778)
(0.514639 9.59671e-19 0.0836187)
(0.558114 0 0.0810105)
(0.575664 -1.26028e-18 0.0823502)
(0.589575 1.35528e-23 0.0833816)
(0.603129 -4.13697e-25 0.0842413)
(0.61523 1.39522e-18 0.0848487)
(0.626507 1.24708e-26 0.0852533)
(0.636998 1.9329e-18 0.0854414)
(0.646252 0 0.0853372)
(0.654927 -1.37298e-18 0.0850152)
(0.663159 0 0.0844819)
(0.670974 -2.01583e-18 0.083731)
(0.678382 -3.50854e-18 0.0827551)
(0.685395 -3.091e-18 0.0815468)
(0.69206 0 0.0801039)
(0.69844 -2.50301e-18 0.0784207)
(0.704672 -3.45435e-26 0.0764956)
(0.710953 2.1617e-18 0.0743223)
(0.717267 3.04313e-26 0.0718607)
(0.72357 2.00443e-18 0.069054)
(0.729925 3.02468e-26 0.0658421)
(0.736329 -2.91866e-26 0.0621431)
(0.742754 2.06253e-18 0.0578627)
(0.749266 -2.16628e-18 0.0529034)
(0.755652 -2.32246e-18 0.0471489)
(0.761496 2.54192e-18 0.0404835)
(0.766512 -2.83928e-18 0.0328246)
(0.770029 2.29844e-26 0.0241143)
(0.771592 -9.37604e-19 0.0143568)
(0.770486 2.76286e-19 0.00360808)
(0.766183 6.60493e-19 -0.00800598)
(0.75793 0 -0.0202865)
(0.744887 0 -0.0329584)
(0.726609 1.51985e-25 -0.0456908)
(0.702905 -1.67419e-25 -0.0581081)
(0.673066 2.32013e-25 -0.0697551)
(0.636573 -2.59009e-25 -0.0801086)
(0.593329 0 -0.0886287)
(0.542102 1.41169e-17 -0.0944963)
(0.484393 -1.7588e-22 -0.0972829)
(0.420649 -1.34554e-24 -0.0963853)
(0.347218 -1.33673e-17 -0.0899947)
(0.280008 1.63785e-17 -0.0818446)
(0.222203 -1.99078e-17 -0.0736806)
(0.134698 5.74948e-24 -0.0506983)
(0.0108595 1.41151e-17 -0.00473071)
(-0.155196 -1.6279e-17 0.0751983)
(-0.376702 1.8157e-17 0.208401)
(-0.659546 9.60294e-18 0.418138)
(-1.00085 0 0.731182)
(-1.38668 1.50513e-17 1.17512)
(-1.78613 1.14478e-23 1.76983)
(-2.15406 -2.00993e-18 2.51918)
(-2.45029 4.02206e-18 3.42043)
(-2.67688 8.50818e-18 4.52694)
(-2.81306 7.39267e-18 5.8551)
(-2.76685 0 7.18903)
(-2.57492 -1.70864e-17 8.50588)
(-2.26115 1.72161e-22 9.71892)
(-1.8651 4.11489e-18 10.7827)
(-1.43877 -2.74735e-18 11.7849)
(-1.01203 1.79947e-18 12.833)
(-0.586444 4.62937e-18 13.9036)
(-0.185836 -3.64559e-19 15.5745)
(0.344257 0 15.2236)
(0.76245 -5.16022e-18 14.251)
(1.20783 -2.2019e-18 13.413)
(1.6834 3.76938e-18 12.7772)
(2.20505 -6.43535e-18 12.307)
(2.77033 3.42067e-22 11.8468)
(3.34872 1.8785e-17 11.2832)
(3.90694 0 10.5953)
(4.40965 -2.72216e-17 9.78733)
(4.81877 -3.02793e-24 8.87284)
(5.10155 5.81628e-22 7.88209)
(5.169 6.30939e-17 6.76805)
(5.09418 -5.13957e-17 5.70221)
(4.91362 -1.79541e-21 4.73675)
(4.65053 6.61336e-17 3.88484)
(4.3448 5.24903e-17 3.16085)
(4.038 8.30145e-17 2.56811)
(3.74889 0 2.09009)
(3.46032 5.18028e-17 1.69483)
(3.18669 -2.04648e-23 1.3728)
(2.93639 -1.49395e-23 1.11272)
(2.70978 9.34898e-22 0.902272)
(2.50442 -1.51255e-23 0.731025)
(2.32181 4.16285e-24 0.591832)
(2.15625 5.39369e-17 0.477252)
(2.00368 4.37966e-17 0.382023)
(1.86565 -2.75103e-22 0.303066)
(1.74141 2.93389e-17 0.237419)
(1.62778 -7.5403e-25 0.182426)
(1.52467 2.00925e-17 0.136371)
(1.42914 -5.22731e-25 0.0976324)
(1.34071 0 0.0651552)
(1.2582 5.947e-18 0.0380241)
(1.18094 8.80159e-26 0.0155454)
(1.10805 -2.28283e-24 -0.00285863)
(1.04042 2.91859e-26 -0.0177158)
(0.977284 -9.15627e-26 -0.0295014)
(0.918153 1.03028e-23 -0.0386356)
(0.862753 -9.91694e-18 -0.0455188)
(0.811221 0 -0.0505382)
(0.763182 -7.82342e-18 -0.0540306)
(0.718382 -7.00966e-18 -0.0562923)
(0.67634 6.30637e-18 -0.0575659)
(0.636459 -9.09407e-26 -0.0580358)
(0.59824 0 -0.0578491)
(0.56131 -6.23558e-26 -0.0571123)
(0.525358 6.66266e-26 -0.0559224)
(0.49016 0 -0.0543307)
(0.455346 -2.96213e-18 -0.0523715)
(0.420837 -6.92855e-26 -0.0500857)
(0.386723 2.65489e-23 -0.0475118)
(0.353182 0 -0.0447131)
(0.320482 -7.61599e-20 -0.0417343)
(0.288916 0 -0.0386534)
(0.258655 -6.43316e-19 -0.035516)
(0.229735 -5.29351e-26 -0.0323564)
(0.202233 1.4798e-18 -0.0292092)
(0.176495 -1.00671e-18 -0.0261362)
(0.153126 1.32058e-18 -0.0232301)
(0.132532 1.63776e-23 -0.0205689)
(0.114359 -1.82036e-23 -0.018154)
(0.0984368 1.31504e-18 -0.0159511)
(0.0771524 7.8816e-25 -0.0129952)
(-0.0615698 -9.84964e-19 -0.00265333)
(21.8717 3.45963e-25 2.44614)
(28.4067 0 2.82437)
(31.6151 0 3.02637)
(34.0397 9.58188e-25 3.12979)
(36.2645 0 3.1956)
(38.4457 0 3.25949)
(40.6216 0 3.34338)
(42.7789 0 3.46248)
(44.8576 -1.29001e-25 3.62423)
(46.7023 1.0243e-25 3.82466)
(48.1342 0 4.05082)
(49.0536 -6.00769e-26 4.29108)
(49.5264 0 4.5431)
(49.7512 0 4.81251)
(49.9036 0 5.10401)
(50.0516 2.29555e-26 5.41592)
(50.194 0 5.74117)
(50.3156 0 6.07073)
(50.4078 0 6.39587)
(50.4709 0 6.70934)
(50.5152 3.77202e-27 7.00609)
(50.5587 0 7.28333)
(50.6122 -1.1122e-27 7.53872)
(50.6671 5.6745e-28 7.76907)
(50.704 0 7.97148)
(50.7139 -1.52327e-28 8.14544)
(50.7041 0 8.29321)
(50.6886 0 8.41844)
(50.6769 0 8.52465)
(50.6723 0 8.61467)
(50.6735 9.66671e-30 8.69059)
(50.6775 0 8.75411)
(50.6814 0 8.8067)
(50.6836 2.42398e-30 8.84988)
(50.6844 0 8.88516)
(50.6844 0 8.91392)
(50.6841 -6.6867e-31 8.93736)
(50.6839 -4.37895e-31 8.95644)
(50.6837 2.86541e-31 8.97196)
(50.6836 0 8.98454)
(50.6836 0 8.99471)
(50.6836 7.90971e-32 9.00292)
(50.6838 0 9.0095)
(50.6841 0 9.01473)
(50.6844 0 9.01882)
(50.6851 0 9.02193)
(50.6856 0 9.024)
(50.6874 -2.16334e-33 9.02538)
(50.6874 0 9.02538)
(50.6856 0 9.024)
(50.6851 0 9.02193)
(50.6844 0 9.01882)
(50.6841 0 9.01473)
(50.6838 0 9.0095)
(50.6836 0 9.00292)
(50.6836 -1.19362e-30 8.99471)
(50.6836 0 8.98454)
(50.6837 -2.45404e-30 8.97196)
(50.6839 0 8.95644)
(50.6841 6.5486e-30 8.93736)
(50.6844 1.2518e-30 8.91392)
(50.6844 1.34474e-29 8.88516)
(50.6836 0 8.84988)
(50.6814 -4.63819e-30 8.8067)
(50.6775 5.87833e-29 8.75411)
(50.6735 0 8.69059)
(50.6723 0 8.61467)
(50.6769 2.61847e-28 8.52465)
(50.6886 -3.96059e-28 8.41844)
(50.7041 0 8.29321)
(50.7139 1.3053e-27 8.14544)
(50.704 0 7.97148)
(50.6671 4.8586e-27 7.76906)
(50.6122 3.80728e-32 7.53871)
(50.5587 -2.5884e-27 7.28333)
(50.5152 0 7.00609)
(50.4708 0 6.70934)
(50.4077 0 6.39587)
(50.3155 0 6.07073)
(50.1939 0 5.74117)
(50.0515 2.82357e-26 5.41593)
(49.9034 3.69563e-26 5.10402)
(49.751 -4.72406e-26 4.81252)
(49.5263 4.73905e-25 4.54315)
(49.0541 5.97693e-25 4.2912)
(48.136 0 4.05107)
(46.706 1.28295e-25 3.8251)
(44.8634 1.30014e-24 3.62489)
(42.7863 -1.99906e-25 3.46337)
(40.6304 0 3.34452)
(38.4556 0 3.26094)
(36.2754 5.41851e-24 3.19744)
(34.0516 1.00682e-23 3.13223)
(31.6277 2.30404e-23 3.03013)
(28.424 1.08846e-23 2.83363)
(22.0907 -3.74405e-22 2.47237)
(1.92379 2.10071e-18 0.305404)
(2.00201 1.67752e-18 0.288638)
(2.04498 2.69402e-18 0.291101)
(2.07721 -2.1695e-18 0.292598)
(2.10954 1.76014e-18 0.293727)
(2.13826 -2.87438e-18 0.294168)
(2.16545 -2.36243e-18 0.294095)
(2.19115 -3.90946e-18 0.293453)
(2.21371 0 0.291972)
(2.23531 -2.01988e-23 0.289898)
(2.25631 0 0.287243)
(2.27673 -2.3399e-25 0.283973)
(2.2965 3.44436e-18 0.280053)
(2.31559 6.04577e-18 0.275448)
(2.33412 0 0.270139)
(2.35221 0 0.2641)
(2.37029 0 0.257318)
(2.38897 -4.18415e-18 0.249762)
(2.40813 0 0.241293)
(2.42763 -3.8682e-18 0.231714)
(2.44762 2.28567e-25 0.220817)
(2.46808 3.85955e-18 0.208325)
(2.48889 -2.30381e-24 0.193914)
(2.51027 4.16958e-18 0.177253)
(2.53149 -6.94256e-26 0.157945)
(2.55115 3.81935e-24 0.135593)
(2.56832 0 0.109913)
(2.58072 3.1161e-18 0.0806958)
(2.58686 1.80863e-18 0.0479385)
(2.58434 2.17198e-26 0.0118107)
(2.57138 -1.27761e-18 -0.0272823)
(2.54545 1.96569e-25 -0.0687036)
(2.50371 -2.13637e-25 -0.111555)
(2.44461 -5.9197e-25 -0.154739)
(2.36744 -1.1574e-17 -0.197033)
(2.26973 -8.15594e-25 -0.236906)
(2.14958 0 -0.272608)
(2.00647 0 -0.302285)
(1.836 2.80932e-17 -0.323144)
(1.64301 -6.1791e-22 -0.33363)
(1.4288 0 -0.331564)
(1.18055 2.71967e-17 -0.310559)
(0.953048 6.131e-22 -0.283318)
(0.758307 -4.13253e-17 -0.255845)
(0.461094 5.02347e-17 -0.176554)
(0.0373228 -3.0047e-17 -0.0162819)
(-0.53498 3.51584e-17 0.264585)
(-1.30363 0 0.735834)
(-2.29202 -4.28359e-17 1.4827)
(-3.49414 -2.10866e-17 2.60525)
(-4.86603 -9.21987e-21 4.20991)
(-6.30499 5.38147e-23 6.38086)
(-7.65772 1.6427e-22 9.15166)
(-8.78889 -9.66352e-18 12.5445)
(-9.72228 -4.05241e-17 16.8167)
(-10.3817 -2.0828e-21 22.0907)
(-10.385 1.36625e-21 27.5481)
(-9.8361 3.3871e-17 33.0968)
(-8.79618 2.4595e-21 38.3587)
(-7.39605 -6.49955e-18 43.0913)
(-5.82341 3.70445e-18 47.5215)
(-4.19874 -1.99244e-18 51.8776)
(-2.547 -1.01975e-18 55.8418)
(-1.01291 -2.52684e-19 60.9346)
(0.821114 -1.03928e-21 60.4467)
(2.60541 1.11449e-18 57.1507)
(4.46356 2.34078e-18 53.9603)
(6.44305 4.69642e-18 51.5867)
(8.56429 4.32749e-21 49.6101)
(10.7999 4.18248e-21 47.4628)
(13.05 -3.65921e-21 44.8636)
(15.192 3.38928e-21 41.7923)
(17.0885 -5.85105e-21 38.2855)
(18.5925 8.28891e-17 34.4094)
(19.5782 -7.017e-17 30.2892)
(19.7272 -1.18582e-16 25.7782)
(19.3072 9.87868e-17 21.5057)
(18.4667 1.6232e-16 17.6742)
(17.3127 -2.63543e-16 14.3346)
(16.0109 -2.11675e-16 11.5328)
(14.726 0 9.2679)
(13.5324 -2.45027e-22 7.46529)
(12.3721 -1.05376e-16 5.99706)
(11.2948 1.66496e-16 4.81712)
(10.3264 -1.31725e-16 3.87568)
(9.46324 3.47045e-21 3.12241)
(8.69267 0 2.51561)
(8.01585 0 2.02666)
(7.40981 -2.14193e-16 1.62737)
(6.85802 1.47478e-21 1.29785)
(6.36364 -1.01101e-21 1.02628)
(5.92235 0 0.801644)
(5.5219 -2.71457e-24 0.614345)
(5.16101 1.95449e-25 0.458113)
(4.82879 2.03232e-24 0.327154)
(4.52305 7.81059e-25 0.217669)
(4.23921 -7.18889e-25 0.126459)
(3.97466 3.48236e-26 0.051055)
(3.72607 2.08652e-18 -0.0105739)
(3.49622 7.17979e-18 -0.0602312)
(3.28228 1.24408e-17 -0.0995663)
(3.08248 -2.17135e-17 -0.130019)
(2.89576 3.8174e-17 -0.152938)
(2.72246 -2.66818e-25 -0.169637)
(2.56128 1.50574e-17 -0.181247)
(2.41128 2.69913e-17 -0.188768)
(2.27081 -2.84437e-23 -0.193012)
(2.13784 -6.53922e-25 -0.194596)
(2.01066 3.17985e-25 -0.193999)
(1.88799 -2.41029e-25 -0.191597)
(1.76877 2.57969e-25 -0.187684)
(1.65221 0 -0.182461)
(1.53705 0 -0.176017)
(1.42299 -4.54932e-18 -0.168488)
(1.31029 3.17138e-18 -0.160009)
(1.1995 -1.80068e-26 -0.150773)
(1.09148 1.50245e-19 -0.140951)
(0.987174 0 -0.130778)
(0.887128 2.56644e-18 -0.120415)
(0.791418 0 -0.109967)
(0.700262 -2.99445e-18 -0.0995487)
(0.614778 2.05492e-18 -0.0893647)
(0.53701 -2.72223e-18 -0.0797352)
(0.468366 6.32927e-23 -0.0709316)
(0.407712 2.23724e-18 -0.0629469)
(0.354407 7.93516e-23 -0.0556665)
(0.281377 3.26859e-24 -0.0454845)
(-0.157065 2.15844e-18 -0.00773892)
(21.6696 0 2.42881)
(28.3749 0 2.8187)
(31.5985 0 3.0241)
(34.0266 -1.15093e-23 3.12836)
(36.2533 -5.46264e-24 3.19455)
(38.4359 0 3.25866)
(40.6133 -2.20667e-24 3.34271)
(42.7719 0 3.46194)
(44.8522 -1.1407e-24 3.62382)
(46.6987 -1.28636e-25 3.82437)
(48.1323 0 4.05063)
(49.0529 7.47524e-26 4.29097)
(49.5262 0 4.54304)
(49.7512 -3.7779e-25 4.81247)
(49.9036 0 5.10398)
(50.0516 -2.82313e-26 5.41589)
(50.194 -1.69468e-25 5.74115)
(50.3156 1.24852e-25 6.07071)
(50.4078 0 6.39586)
(50.4709 0 6.70933)
(50.5152 -4.60761e-27 7.00609)
(50.5587 0 7.28332)
(50.6122 1.35983e-27 7.53871)
(50.6671 -6.24809e-27 7.76906)
(50.704 0 7.97148)
(50.7139 1.86512e-28 8.14544)
(50.7041 0 8.29321)
(50.6886 0 8.41844)
(50.6769 9.14789e-34 8.52465)
(50.6723 -6.70373e-34 8.61467)
(50.6735 -1.18419e-29 8.69059)
(50.6775 0 8.75411)
(50.6814 0 8.8067)
(50.6836 2.07858e-29 8.84988)
(50.6844 0 8.88516)
(50.6844 0 8.91392)
(50.6841 -5.73451e-30 8.93736)
(50.6839 4.82848e-30 8.95644)
(50.6837 2.45772e-30 8.97196)
(50.6836 0 8.98454)
(50.6836 0 8.99471)
(50.6836 6.78011e-31 9.00292)
(50.6838 0 9.0095)
(50.6841 0 9.01473)
(50.6844 -1.86854e-31 9.01882)
(50.6851 0 9.02193)
(50.6856 0 9.024)
(50.6874 2.64965e-33 9.02538)
(50.6874 5.54414e-32 9.02538)
(50.6856 0 9.024)
(50.6851 0 9.02193)
(50.6844 0 9.01882)
(50.6841 8.19401e-31 9.01473)
(50.6838 0 9.0095)
(50.6836 0 9.00292)
(50.6836 1.56764e-30 8.99471)
(50.6836 0 8.98454)
(50.6837 1.10499e-29 8.97196)
(50.6839 0 8.95644)
(50.6841 -8.60174e-30 8.93736)
(50.6844 0 8.91392)
(50.6844 -2.01882e-29 8.88516)
(50.6836 0 8.84988)
(50.6814 0 8.8067)
(50.6775 -7.72213e-29 8.75411)
(50.6735 0 8.69059)
(50.6723 -4.08975e-28 8.61467)
(50.6769 -3.43913e-28 8.52465)
(50.6886 5.94402e-28 8.41844)
(50.7041 0 8.29321)
(50.7139 -1.95759e-27 8.14544)
(50.704 -7.46312e-27 7.97148)
(50.6671 -7.27504e-27 7.76907)
(50.6122 0 7.53872)
(50.5587 0 7.28333)
(50.5152 -9.62896e-26 7.00609)
(50.4708 0 6.70934)
(50.4077 0 6.39588)
(50.3155 0 6.07074)
(50.1939 0 5.74119)
(50.0514 0 5.41594)
(49.9033 -7.82929e-25 5.10404)
(49.7508 0 4.81255)
(49.5262 -6.3248e-25 4.5432)
(49.0544 -8.01102e-25 4.29131)
(48.1372 0 4.05128)
(46.7085 0 3.82545)
(44.8675 -1.77312e-24 3.62541)
(42.7916 4.4056e-24 3.46406)
(40.6369 -6.12338e-24 3.34541)
(38.4631 -9.32251e-24 3.26206)
(36.2839 -7.71838e-24 3.1989)
(34.0613 -1.45012e-23 3.13422)
(31.6385 -3.32717e-23 3.03331)
(28.4379 -2.37839e-22 2.8408)
(22.2677 3.79157e-22 2.49778)
(4.22396 -6.31783e-18 0.65154)
(4.25362 -5.08453e-18 0.606147)
(4.29349 0 0.606036)
(4.31706 0 0.604)
(4.34449 -5.13799e-18 0.601768)
(4.36847 -4.15059e-18 0.598542)
(4.39287 3.37807e-18 0.594709)
(4.41747 -5.54109e-18 0.590152)
(4.43872 -4.58184e-18 0.584313)
(4.46074 3.82244e-18 0.577672)
(4.48401 0 0.570225)
(4.5083 0 0.561878)
(4.53329 -4.73057e-18 0.552532)
(4.55872 -4.13437e-18 0.542099)
(4.58461 -8.7623e-25 0.530513)
(4.61107 -6.61056e-18 0.517701)
(4.63879 0 0.503616)
(4.66879 5.65625e-18 0.488182)
(4.70079 3.17374e-25 0.471103)
(4.73439 0 0.451989)
(4.76983 0 0.430419)
(4.80697 -5.18789e-18 0.405837)
(4.84559 -4.48783e-25 0.377596)
(4.88604 0 0.345043)
(4.9269 0 0.307381)
(4.96547 -1.31407e-17 0.263813)
(4.99989 0 0.213764)
(5.0258 -8.37778e-18 0.156783)
(5.0403 -4.86776e-18 0.0928179)
(5.03873 1.04103e-25 0.0221502)
(5.01764 -1.33801e-25 -0.0544904)
(4.97204 -4.18912e-18 -0.135943)
(4.89634 0 -0.220523)
(4.78738 -1.27098e-17 -0.306157)
(4.64358 1.58166e-17 -0.390537)
(4.45979 0 -0.470706)
(4.23193 2.48129e-17 -0.543247)
(3.95842 -3.11992e-17 -0.604466)
(3.62984 2.02018e-22 -0.648749)
(3.25505 4.9452e-17 -0.672746)
(2.8359 -6.21979e-17 -0.671742)
(2.34584 -3.5967e-23 -0.632334)
(1.89552 -4.87608e-17 -0.579618)
(1.51233 6.05679e-17 -0.525508)
(0.922551 -7.45318e-17 -0.363896)
(0.0759825 4.5172e-17 -0.0330784)
(-1.07272 -4.04617e-22 0.551237)
(-2.61904 -6.1441e-17 1.53676)
(-4.60661 3.34005e-17 3.10355)
(-7.01615 3.31169e-17 5.46127)
(-9.74699 -2.72739e-17 8.82896)
(-12.5808 3.24349e-22 13.3728)
(-15.2061 -4.81586e-22 19.1463)
(-17.3554 1.35967e-17 26.1597)
(-18.9748 2.48165e-17 34.6433)
(-19.7257 0 44.1031)
(-19.1098 5.84041e-21 52.92)
(-17.4631 -1.24144e-17 60.9008)
(-15.1614 -1.32674e-20 68.0413)
(-12.5096 3.58202e-18 74.4421)
(-9.70578 1.78731e-18 80.1682)
(-6.90203 6.61501e-21 85.4068)
(-4.1211 -1.22057e-18 89.8589)
(-1.64893 1.89604e-19 94.8943)
(0.937033 1.96518e-19 95.1887)
(3.58156 -4.47547e-19 92.771)
(6.53577 3.90428e-21 89.6112)
(9.86531 -5.27075e-21 86.4288)
(13.512 8.86729e-21 83.2512)
(17.4189 -9.77404e-21 79.9496)
(21.491 9.20277e-21 76.2546)
(25.5366 0 71.8525)
(29.2775 -3.36319e-17 66.5772)
(32.4069 -6.03263e-17 60.4713)
(34.6384 2.44627e-20 53.7209)
(35.7966 9.28663e-17 46.658)
(35.9547 -2.50557e-21 39.7715)
(35.2282 -2.06949e-21 33.3576)
(33.7379 1.19352e-16 27.5552)
(31.7292 1.01185e-16 22.4961)
(29.5091 4.96427e-23 18.2569)
(27.2756 1.06934e-21 14.785)
(25.0106 1.15164e-16 11.913)
(22.8449 -1.8906e-16 9.57821)
(20.8593 3.09184e-16 7.70162)
(19.0695 -1.26094e-16 6.1948)
(17.4636 1.96868e-22 4.98006)
(16.0501 -1.67477e-16 4.00196)
(14.787 1.36685e-16 3.20507)
(13.6423 7.86039e-22 2.54945)
(12.621 -5.41706e-22 2.01075)
(11.7133 7.55432e-17 1.56657)
(10.8939 0 1.19744)
(10.1592 0 0.890509)
(9.48669 -4.32706e-17 0.634014)
(8.87103 0 0.420155)
(8.30235 -4.3784e-25 0.242465)
(7.77484 4.99956e-25 0.0959114)
(7.28137 -4.04201e-25 -0.023641)
(6.8268 -1.9178e-17 -0.119776)
(6.40522 -3.32579e-17 -0.19579)
(6.01277 0 -0.254563)
(5.64712 -5.11116e-17 -0.298737)
(5.30873 0 -0.330886)
(4.99483 0 -0.353213)
(4.70351 -1.08464e-23 -0.367682)
(4.43143 -1.63381e-17 -0.375866)
(4.17455 0 -0.378953)
(3.92949 0 -0.377861)
(3.69368 -6.51731e-25 -0.373337)
(3.46501 6.99143e-25 -0.365906)
(3.24189 0 -0.355992)
(3.02175 0 -0.343735)
(2.80395 6.22132e-18 -0.329377)
(2.58887 -2.17708e-18 -0.31321)
(2.37752 4.97253e-26 -0.295552)
(2.17144 -5.6167e-26 -0.276791)
(1.97239 0 -0.257317)
(1.78135 4.36569e-23 -0.237459)
(1.59839 0 -0.217407)
(1.42381 4.27127e-18 -0.197368)
(1.2597 -2.6129e-24 -0.177746)
(1.11006 3.96051e-18 -0.159199)
(0.977793 2.43913e-23 -0.142283)
(0.860822 0 -0.126943)
(0.75773 -8.50359e-18 -0.112981)
(0.612113 2.68982e-18 -0.0923215)
(-0.209764 3.29231e-18 -0.0230391)
(21.3712 4.67222e-24 2.4034)
(28.3315 3.21029e-22 2.81124)
(31.5777 7.23802e-23 3.02103)
(34.01 1.499e-23 3.12642)
(36.2391 7.84718e-24 3.19312)
(38.4236 9.41121e-24 3.25756)
(40.6027 9.23891e-24 3.34186)
(42.7632 -4.42461e-24 3.46129)
(44.8455 1.78232e-24 3.62334)
(46.6943 0 3.82405)
(48.13 -2.10128e-24 4.05045)
(49.052 0 4.29089)
(49.5261 0 4.54301)
(49.7513 5.01843e-25 4.81246)
(49.9036 0 5.10398)
(50.0516 0 5.41589)
(50.194 2.22893e-25 5.74115)
(50.3156 -1.63769e-25 6.07071)
(50.4078 0 6.39586)
(50.4709 0 6.70933)
(50.5152 9.62957e-26 7.00609)
(50.5587 0 7.28333)
(50.6122 0 7.53871)
(50.6671 7.27677e-27 7.76906)
(50.704 7.46445e-27 7.97148)
(50.7139 0 8.14544)
(50.7041 2.12128e-27 8.29321)
(50.6886 0 8.41844)
(50.6769 0 8.52465)
(50.6723 4.09037e-28 8.61467)
(50.6735 0 8.69059)
(50.6775 0 8.75411)
(50.6814 0 8.8067)
(50.6836 -9.36169e-29 8.84988)
(50.6844 0 8.88516)
(50.6844 0 8.91392)
(50.6841 2.58268e-29 8.93736)
(50.6839 -5.63761e-30 8.95644)
(50.6837 3.69085e-30 8.97196)
(50.6836 0 8.98454)
(50.6836 0 8.99471)
(50.6836 -1.01773e-30 9.00292)
(50.6838 1.3002e-30 9.0095)
(50.6841 8.15846e-31 9.01473)
(50.6844 2.45403e-31 9.01882)
(50.6851 0 9.02193)
(50.6856 0 9.024)
(50.6874 -5.57726e-32 9.02538)
(50.6874 -7.27444e-32 9.02538)
(50.6856 -2.92184e-31 9.024)
(50.6851 0 9.02193)
(50.6844 0 9.01882)
(50.6841 -1.07527e-30 9.01473)
(50.6838 -3.42327e-30 9.0095)
(50.6836 0 9.00292)
(50.6836 0 8.99471)
(50.6836 0 8.98454)
(50.6837 9.66518e-30 8.97196)
(50.6839 0 8.95644)
(50.6841 0 8.93736)
(50.6844 0 8.91392)
(50.6844 0 8.88516)
(50.6836 0 8.84988)
(50.6814 -2.55962e-28 8.8067)
(50.6775 4.05503e-28 8.75411)
(50.6735 0 8.69059)
(50.6723 5.36801e-28 8.61467)
(50.6769 0 8.52465)
(50.6886 3.11953e-27 8.41844)
(50.7041 5.56297e-27 8.29321)
(50.7139 -1.02629e-26 8.14544)
(50.704 9.77175e-27 7.97148)
(50.6671 -3.80539e-26 7.76907)
(50.6122 7.4329e-26 7.53872)
(50.5587 0 7.28333)
(50.5152 3.76079e-25 7.0061)
(50.4708 0 6.70934)
(50.4077 6.08189e-25 6.39588)
(50.3155 -8.56985e-25 6.07075)
(50.1938 1.17013e-24 5.7412)
(50.0514 -1.56963e-24 5.41596)
(49.9032 -1.03455e-24 5.10406)
(49.7506 2.66569e-24 4.81258)
(49.5261 0 4.54325)
(49.0549 4.28714e-24 4.29144)
(48.1391 -5.62601e-24 4.05155)
(46.7124 -7.49717e-24 3.82591)
(44.8736 0 3.62609)
(42.7997 -6.04354e-24 3.465)
(40.6468 8.47804e-24 3.34663)
(38.4749 1.30272e-23 3.26363)
(36.2977 0 3.20096)
(34.0775 1.59761e-28 3.13707)
(31.6575 -1.0796e-27 3.03792)
(28.4632 3.05903e-22 2.85105)
(22.5197 2.05801e-26 2.53026)
(7.75276 -3.99849e-18 1.1752)
(7.62459 6.84996e-18 1.07938)
(7.61434 -2.1286e-23 1.06947)
(7.587 1.61076e-23 1.05722)
(7.5718 3.45653e-18 1.04549)
(7.55695 5.56815e-18 1.03283)
(7.54848 4.51606e-18 1.01991)
(7.54562 7.38013e-18 1.0065)
(7.54201 6.08083e-18 0.991634)
(7.54413 0 0.976074)
(7.55242 0 0.959766)
(7.56607 7.20962e-18 0.942503)
(7.5842 6.19889e-18 0.924071)
(7.60606 -5.40385e-18 0.904278)
(7.63134 9.56453e-18 0.882971)
(7.65996 8.60296e-18 0.859986)
(7.69273 -9.37434e-25 0.8352)
(7.73104 0 0.808444)
(7.77431 6.96106e-18 0.779213)
(7.82177 0 0.746841)
(7.87373 -6.64546e-18 0.71061)
(7.92985 0 0.669581)
(7.98965 -6.87046e-18 0.622667)
(8.05368 8.61755e-25 0.568768)
(8.11957 -9.23629e-25 0.506542)
(8.18293 8.44689e-18 0.43465)
(8.24075 -9.44193e-18 0.352099)
(8.28593 5.38598e-18 0.258095)
(8.31378 3.13163e-18 0.152483)
(8.31675 0 0.0356433)
(8.28918 0 -0.0913307)
(8.22283 -1.34905e-23 -0.226642)
(8.10824 1.33481e-17 -0.367632)
(7.94004 -4.61422e-23 -0.51101)
(7.71528 -5.25307e-24 -0.653058)
(7.42489 5.9157e-24 -0.788971)
(7.06114 -3.30538e-17 -0.913041)
(6.62016 4.19756e-17 -1.01902)
(6.08459 1.50119e-22 -1.09716)
(5.46737 -3.11987e-23 -1.14128)
(4.77013 -1.45255e-22 -1.14264)
(3.94585 0 -1.07741)
(3.185 6.99411e-17 -0.988124)
(2.54325 -1.6321e-22 -0.896867)
(1.55311 1.08915e-16 -0.621147)
(0.131211 -6.66428e-17 -0.0555898)
(-1.79259 1.83008e-23 0.941745)
(-4.36272 1.82319e-16 2.61491)
(-7.62281 -4.90405e-17 5.2495)
(-11.4969 -1.20292e-21 9.15618)
(-15.7627 3.70208e-17 14.6197)
(-20.017 8.35416e-22 21.786)
(-23.7397 -2.17665e-21 30.5645)
(-26.4463 -1.29152e-17 40.6367)
(-27.6907 2.00062e-17 51.3148)
(-27.2229 -5.11815e-21 61.574)
(-25.3602 7.11944e-18 70.9836)
(-22.4967 7.70401e-18 79.3073)
(-19.0483 7.3117e-21 86.5617)
(-15.3413 -1.99095e-18 92.874)
(-11.5839 -3.80481e-18 98.3083)
(-7.9488 -1.3923e-20 102.989)
(-4.45774 4.22284e-19 106.774)
(-1.48945 -5.91227e-21 110.415)
(1.60938 -3.08675e-19 111.757)
(4.76105 8.98259e-19 111.583)
(8.36457 -3.72355e-22 110.597)
(12.5441 1.19935e-18 108.79)
(17.1884 1.42659e-20 105.998)
(22.1818 1.18045e-20 102.221)
(27.4081 -1.2359e-17 97.591)
(32.6434 -1.22968e-17 92.0707)
(37.5757 2.34477e-17 85.5854)
(41.8178 -4.26379e-17 78.1021)
(44.9807 3.75579e-17 69.7664)
(46.946 -8.01401e-21 61.1373)
(47.6985 -3.33108e-21 52.6607)
(47.3562 9.49335e-17 44.7053)
(46.0575 2.56262e-21 37.4602)
(44.035 -6.9819e-17 31.0565)
(41.6116 1.19175e-16 25.5845)
(39.0172 6.22896e-23 21.0028)
(36.3922 -8.62187e-17 17.2037)
(33.8193 -5.88484e-22 14.0666)
(31.3922 -1.25985e-16 11.4954)
(29.1365 1.07453e-16 9.38647)
(27.0507 0 7.64992)
(25.1566 5.98863e-22 6.22106)
(23.4159 6.06031e-23 5.03428)
(21.7951 -9.57316e-23 4.04051)
(20.3082 9.52345e-17 3.20983)
(18.9524 -8.08024e-17 2.51469)
(17.7016 -1.57315e-23 1.93001)
(16.5596 2.1191e-23 1.43927)
(15.5007 4.9586e-17 1.02638)
(14.5218 4.23448e-17 0.680391)
(13.6109 -1.81498e-17 0.391796)
(12.7612 0 0.153092)
(11.9636 0 -0.0420698)
(11.2268 1.17737e-17 -0.199309)
(10.5422 2.06157e-17 -0.323843)
(9.90414 -3.63281e-17 -0.420304)
(9.30933 3.22203e-17 -0.492958)
(8.75864 -2.87592e-17 -0.545992)
(8.24785 -1.44953e-24 -0.582972)
(7.77405 -2.33158e-17 -0.607126)
(7.33193 -2.11352e-17 -0.621028)
(6.91499 -1.22855e-24 -0.62661)
(6.51776 0 -0.62541)
(6.13606 1.57526e-17 -0.618615)
(5.76641 0 -0.607114)
(5.40614 1.29758e-24 -0.591564)
(5.05098 -2.49117e-24 -0.572206)
(4.69979 -8.34367e-18 -0.549413)
(4.35308 -2.93611e-18 -0.52367)
(4.01237 0 -0.495472)
(3.68004 2.84749e-19 -0.465442)
(3.3589 0 -0.434218)
(3.05047 -2.49344e-18 -0.402313)
(2.75474 0 -0.370027)
(2.47205 -6.00452e-18 -0.337676)
(2.20571 -4.19523e-18 -0.305929)
(1.96238 -5.66716e-18 -0.275902)
(1.74714 -3.74179e-18 -0.248551)
(1.55693 1.78955e-23 -0.223784)
(1.38901 -3.7439e-23 -0.201219)
(1.14463 -4.01146e-18 -0.165973)
(-0.0397264 -1.15368e-21 -0.0771065)
(20.939 0 2.36393)
(28.2646 -4.95785e-22 2.79964)
(31.5499 -1.08327e-22 3.0164)
(33.9881 2.5055e-28 3.12358)
(36.2205 -4.39079e-29 3.19107)
(38.4075 -3.97185e-23 3.256)
(40.589 -8.56204e-24 3.34065)
(42.7519 6.08749e-24 3.46036)
(44.8368 0 3.62266)
(46.6886 7.56031e-24 3.8236)
(48.1271 2.82762e-24 4.05019)
(49.051 -4.29177e-24 4.29077)
(49.526 0 4.54296)
(49.7514 2.66089e-24 4.81244)
(49.9037 0 5.10397)
(50.0516 0 5.41588)
(50.194 -1.16932e-24 5.74114)
(50.3156 8.56562e-25 6.07071)
(50.4078 -6.08e-25 6.39586)
(50.4709 4.07257e-25 6.70933)
(50.5153 -1.25367e-25 7.00609)
(50.5587 0 7.28332)
(50.6122 -7.434e-26 7.53871)
(50.6671 3.80598e-26 7.76906)
(50.704 -9.77382e-27 7.97148)
(50.7139 1.02643e-26 8.14544)
(50.7041 -8.34556e-27 8.29321)
(50.6886 0 8.41844)
(50.6769 0 8.52465)
(50.6723 -5.36885e-28 8.61467)
(50.6735 0 8.69059)
(50.6775 0 8.75411)
(50.6814 2.56004e-28 8.8067)
(50.6836 2.45797e-28 8.84988)
(50.6844 0 8.88516)
(50.6844 0 8.91392)
(50.6841 -2.26023e-29 8.93736)
(50.6839 0 8.95644)
(50.6837 -2.9064e-29 8.97196)
(50.6836 1.26472e-29 8.98454)
(50.6836 0 8.99471)
(50.6836 0 9.00292)
(50.6838 1.70549e-30 9.0095)
(50.6841 -1.07079e-30 9.01473)
(50.6844 0 9.01882)
(50.6851 0 9.02193)
(50.6856 2.93525e-31 9.024)
(50.6874 7.31979e-32 9.02538)
(50.6874 0 9.02538)
(50.6856 3.83029e-31 9.024)
(50.6851 0 9.02193)
(50.6844 0 9.01882)
(50.6841 0 9.01473)
(50.6838 4.48825e-30 9.0095)
(50.6836 -1.40221e-29 9.00292)
(50.6836 0 8.99471)
(50.6836 0 8.98454)
(50.6837 -2.5356e-29 8.97196)
(50.6839 0 8.95644)
(50.6841 0 8.93736)
(50.6844 1.81167e-28 8.91392)
(50.6844 0 8.88516)
(50.6836 0 8.84988)
(50.6814 3.35738e-28 8.8067)
(50.6775 -5.31859e-28 8.75411)
(50.6735 0 8.69059)
(50.6723 -2.81563e-27 8.61467)
(50.6769 0 8.52465)
(50.6886 -4.08775e-27 8.41844)
(50.7041 7.28548e-27 8.29321)
(50.7139 1.3428e-26 8.14544)
(50.704 -5.10766e-26 7.97148)
(50.6671 4.96338e-26 7.76907)
(50.6122 -9.6727e-26 7.53872)
(50.5587 3.66387e-25 7.28333)
(50.5152 -3.25014e-25 7.0061)
(50.4708 0 6.70935)
(50.4077 7.90035e-25 6.39589)
(50.3154 3.34961e-24 6.07075)
(50.1938 1.52998e-24 5.74121)
(50.0513 2.05998e-24 5.41597)
(49.9031 2.72642e-24 5.10408)
(49.7504 -3.52811e-24 4.81261)
(49.526 8.96325e-24 4.54333)
(49.0557 -5.72184e-24 4.29161)
(48.1417 -7.53353e-24 4.0519)
(46.7179 1.00762e-23 3.82653)
(44.8824 0 3.62702)
(42.8115 -3.30219e-23 3.46627)
(40.6615 -4.67063e-23 3.34831)
(38.4925 0 3.26583)
(36.3185 0 3.20387)
(34.1024 8.92183e-28 3.14115)
(31.6877 5.12163e-22 3.04461)
(28.505 1.12663e-26 2.86575)
(22.8602 0 2.5705)
(11.8504 4.60645e-22 1.78213)
(11.8044 6.88628e-23 1.66469)
(11.7532 0 1.64595)
(11.6818 -3.3938e-23 1.62386)
(11.6234 5.65093e-23 1.60177)
(11.5645 6.01821e-18 1.57805)
(11.5151 -4.92217e-18 1.55386)
(11.4752 1.5809e-23 1.5291)
(11.4375 6.70956e-18 1.50261)
(11.4105 -5.25437e-24 1.47539)
(11.3951 1.54423e-25 1.4474)
(11.3901 -8.04077e-18 1.41837)
(11.3944 3.35035e-24 1.38797)
(11.4067 -1.44443e-23 1.35592)
(11.4263 -1.07157e-17 1.32194)
(11.4529 -4.6088e-24 1.28577)
(11.487 2.10251e-24 1.24715)
(11.5299 0 1.20575)
(11.5812 -7.79863e-18 1.16085)
(11.64 0 1.1115)
(11.7066 7.43024e-18 1.05662)
(11.7805 -7.46924e-18 0.994802)
(11.861 0 0.924431)
(11.9486 -8.02298e-18 0.843856)
(12.0402 -1.06625e-24 0.751089)
(12.1295 1.07481e-24 0.644153)
(12.2124 1.04718e-17 0.521547)
(12.2791 5.96962e-18 0.382062)
(12.3231 5.67554e-25 0.225377)
(12.334 1.02203e-25 0.0519161)
(12.3041 1.39698e-25 -0.136906)
(12.2213 1.20922e-17 -0.338686)
(12.0717 -1.49575e-17 -0.549795)
(11.8476 1.8707e-17 -0.765705)
(11.5444 1.19628e-23 -0.981296)
(11.1482 1.57546e-24 -1.18978)
(10.6458 -1.75673e-23 -1.38291)
(10.028 5.0168e-17 -1.55121)
(9.26521 -6.56155e-17 -1.67955)
(8.36848 -8.6454e-17 -1.75679)
(7.3322 1.14402e-16 -1.76682)
(6.07519 -7.59714e-17 -1.66896)
(4.89014 -1.98079e-16 -1.52641)
(3.89412 -1.2506e-16 -1.3812)
(2.37088 -1.56494e-16 -0.951891)
(0.20677 0 -0.0830955)
(-2.67426 0 1.42522)
(-6.42998 -1.27094e-16 3.90201)
(-11.0316 1.29576e-16 7.68932)
(-16.2494 0 13.0926)
(-21.6477 -3.97274e-17 20.2908)
(-26.6102 -7.34001e-18 29.2169)
(-30.4806 -6.37213e-18 39.5152)
(-32.7344 0 50.5915)
(-33.0518 -1.06747e-19 61.604)
(-31.5391 8.33505e-18 71.8071)
(-28.7132 -4.70351e-18 81.0312)
(-24.9941 -4.7717e-20 89.0778)
(-20.7771 -2.46435e-18 95.8664)
(-16.3922 1.19591e-18 101.443)
(-12.078 1.14039e-18 105.911)
(-8.0226 4.93877e-19 109.436)
(-4.26751 -2.30838e-19 112.089)
(-1.07679 1.13117e-19 114.282)
(2.20662 2.4183e-19 116.112)
(5.54554 2.52002e-19 117.59)
(9.43197 -5.9954e-19 118.82)
(14.117 4.74782e-21 119.518)
(19.5359 3.27743e-18 119.269)
(25.5666 -5.82347e-20 117.674)
(32.0099 9.0068e-20 114.341)
(38.505 8.87368e-18 109.015)
(44.5817 -1.78703e-17 101.783)
(49.7355 8.91074e-20 92.977)
(53.5617 0 83.093)
(55.8905 5.32292e-17 72.7767)
(56.7435 5.31357e-21 62.6251)
(56.3278 -1.46266e-16 53.1443)
(54.9204 0 44.6303)
(52.7386 1.01683e-16 37.1497)
(50.114 -8.57068e-17 30.7628)
(47.2888 0 25.4052)
(44.4577 0 20.9676)
(41.7179 0 17.3058)
(39.1449 -9.10351e-17 14.292)
(36.7506 -2.53293e-21 11.8015)
(34.5313 0 9.73208)
(32.4933 2.34816e-16 8.00651)
(30.6142 -1.01711e-16 6.5572)
(28.8529 -8.84666e-17 5.32802)
(27.2128 -7.69989e-17 4.28359)
(25.6881 3.07581e-23 3.39382)
(24.2499 -2.30408e-24 2.63197)
(22.9059 -2.53563e-23 1.98105)